S  C  A  M  O  R  G in water
 7890
    1ASP      N    1   2.012   3.146   2.386 -0.3875  0.5412 -0.3174
    1ASP     H1    2   2.099   3.109   2.351 -0.7969  0.2700 -1.0746
    1ASP     H2    3   1.934   3.113   2.330 -1.5448  0.1978  1.4056
    1ASP     H3    4   2.026   3.246   2.372  0.0347  0.1959 -3.0974
    1ASP     CA    5   2.000   3.088   2.522  0.2076 -0.5232  0.6077
    1ASP     HA    6   2.066   3.128   2.599  1.3110  1.2617 -1.1558
    1ASP     CB    7   1.857   3.108   2.579 -0.5674 -0.2102  0.6110
    1ASP    HB1    8   1.788   3.042   2.525  0.5583 -1.2116  0.3534
    1ASP    HB2    9   1.825   3.211   2.564 -1.1525 -0.5353 -0.5251
    1ASP     CG   10   1.850   3.079   2.722  0.5298 -0.6421 -0.4520
    1ASP    OD1   11   1.920   3.147   2.803  0.5400  0.1724 -0.4441
    1ASP    OD2   12   1.786   2.980   2.760  0.0759 -0.0292  0.7433
    1ASP      C   13   2.043   2.947   2.531  0.5093 -0.4307 -0.1097
    1ASP      O   14   2.133   2.924   2.606 -0.5911 -0.1509 -0.3294
    2ALA      N   15   1.975   2.843   2.472 -0.1586  0.3582  0.3441
    2ALA      H   16   1.902   2.862   2.405 -0.1996 -0.2396  0.2173
    2ALA     CA   17   1.977   2.714   2.527  0.3181 -0.0383  0.1272
    2ALA     HA   18   2.016   2.726   2.628  0.1087  0.2461  0.1746
    2ALA     CB   19   1.828   2.661   2.536 -0.3258 -0.2664 -0.5334
    2ALA    HB1   20   1.767   2.726   2.598  1.4646  0.2943  0.7236
    2ALA    HB2   21   1.789   2.648   2.435 -0.6195 -0.4287 -0.4000
    2ALA    HB3   22   1.831   2.564   2.586  0.2594  0.1130  0.1957
    2ALA      C   23   2.082   2.619   2.459  0.3978 -0.3850  0.2992
    2ALA      O   24   2.079   2.496   2.478 -1.1284  0.5527 -0.2493
    3TYR      N   25   2.175   2.670   2.385 -1.1149 -0.2110  0.9108
    3TYR      H   26   2.169   2.766   2.354  0.6040 -0.7035 -1.2263
    3TYR     CA   27   2.286   2.599   2.317 -0.0943 -0.3132  0.4642
    3TYR     HA   28   2.253   2.522   2.246  0.7873 -2.1912  1.9961
    3TYR     CB   29   2.377   2.695   2.231 -0.2240 -1.0544  0.2202
    3TYR    HB1   30   2.421   2.773   2.293  0.9548 -0.0063 -1.7955
    3TYR    HB2   31   2.315   2.761   2.169  1.8546  1.1694  0.3365
    3TYR     CG   32   2.481   2.629   2.150  0.2570  0.1972 -0.0958
    3TYR    CD1   33   2.613   2.625   2.198 -0.7182  0.3181  0.0914
    3TYR    HD1   34   2.628   2.656   2.300 -0.1671  1.2352 -0.2580
    3TYR    CE1   35   2.720   2.566   2.113  0.8843  0.0783 -0.5367
    3TYR    HE1   36   2.821   2.563   2.150 -0.5826 -0.5613  4.0466
    3TYR     CZ   37   2.682   2.515   1.987 -0.3037 -0.5177  0.1713
    3TYR     OH   38   2.775   2.453   1.914 -0.1453 -0.2436 -0.0784
    3TYR     HH   39   2.737   2.421   1.832  0.3165  1.4900 -1.0128
    3TYR    CE2   40   2.546   2.513   1.944  0.1684 -0.1545 -0.1925
    3TYR    HE2   41   2.523   2.461   1.852  1.6026 -0.2257 -0.5404
    3TYR    CD2   42   2.444   2.567   2.028 -0.0222 -0.9808  0.1625
    3TYR    HD2   43   2.342   2.564   1.992 -0.9222  1.4078  2.2334
    3TYR      C   44   2.365   2.515   2.416  0.0274 -0.6432  0.4497
    3TYR      O   45   2.401   2.399   2.382  0.1312 -0.8994  0.2898
    4ALA      N   46   2.404   2.568   2.536  0.4378  0.0876  0.0804
    4ALA      H   47   2.388   2.665   2.559 -1.6406 -0.2161  0.0597
    4ALA     CA   48   2.479   2.490   2.632 -0.9759 -0.0720  0.6940
    4ALA     HA   49   2.562   2.441   2.580 -0.2603 -0.4667  2.1245
    4ALA     CB   50   2.531   2.579   2.745  0.1839  0.0193 -0.4566
    4ALA    HB1   51   2.616   2.644   2.724 -0.8657  2.7193  2.7626
    4ALA    HB2   52   2.449   2.646   2.772 -0.9430 -0.9918 -1.2617
    4ALA    HB3   53   2.573   2.521   2.828  0.9056  1.5575  0.2918
    4ALA      C   54   2.401   2.375   2.691 -0.1300  0.7862 -1.1799
    4ALA      O   55   2.459   2.269   2.724  1.0123  0.1708  0.2884
    5GLN      N   56   2.271   2.387   2.712  0.8384 -0.0330 -0.0682
    5GLN      H   57   2.227   2.478   2.699  0.3219 -0.1064  1.0449
    5GLN     CA   58   2.180   2.272   2.732  0.0575  0.4757  0.7439
    5GLN     HA   59   2.220   2.227   2.823  2.6372  1.5104  0.2055
    5GLN     CB   60   2.040   2.328   2.761  0.5191 -0.8058 -0.0163
    5GLN    HB1   61   1.995   2.365   2.670  0.3264 -0.8682  0.0536
    5GLN    HB2   62   2.049   2.403   2.839  4.0958 -3.1304  2.1526
    5GLN     CG   63   1.941   2.227   2.812 -0.8754 -0.1500  0.0096
    5GLN    HG1   64   1.982   2.196   2.908  0.9497  0.1181 -0.6418
    5GLN    HG2   65   1.923   2.146   2.741  0.0546 -0.3235 -0.0385
    5GLN     CD   66   1.805   2.300   2.839 -0.0899  0.2319  0.4919
    5GLN    OE1   67   1.750   2.377   2.759 -0.5306 -0.3139  0.8448
    5GLN    NE2   68   1.742   2.271   2.953 -0.0627  0.1912  0.7111
    5GLN   HE21   69   1.781   2.213   3.026 -0.8894 -1.3111  0.0177
    5GLN   HE22   70   1.658   2.320   2.978 -0.4701  0.5369 -1.1522
    5GLN      C   71   2.173   2.172   2.614  0.0822 -0.6748 -0.5639
    5GLN      O   72   2.163   2.051   2.636 -0.3663 -0.5927 -0.6706
    6TRP      N   73   2.161   2.214   2.492  0.1499 -0.3216 -0.0130
    6TRP      H   74   2.141   2.313   2.492 -0.7941 -0.4927 -0.6835
    6TRP     CA   75   2.158   2.128   2.368  0.1913 -0.1760  0.3707
    6TRP     HA   76   2.082   2.050   2.378  1.1931 -1.3498 -0.8653
    6TRP     CB   77   2.131   2.211   2.243 -0.6305  0.0658  0.0638
    6TRP    HB1   78   2.201   2.294   2.246 -1.0374  0.3850  1.7523
    6TRP    HB2   79   2.027   2.244   2.236 -0.5093  0.2079 -1.2536
    6TRP     CG   80   2.160   2.143   2.110  0.6399 -0.2119  0.0962
    6TRP    CD1   81   2.075   2.073   2.035  0.4184 -0.1285  0.0132
    6TRP    HD1   82   1.972   2.046   2.050  0.6470 -1.6974 -0.9884
    6TRP    NE1   83   2.137   2.046   1.913 -0.0976 -0.2446  0.3534
    6TRP    HE1   84   2.098   1.978   1.849  0.8503  0.3240 -0.8800
    6TRP    CE2   85   2.276   2.081   1.914  0.3349 -0.2126  0.6133
    6TRP    CZ2   86   2.378   2.065   1.822 -0.4626 -0.0737  0.8444
    6TRP    HZ2   87   2.365   2.015   1.728  0.3555  1.4999 -0.1538
    6TRP    CH2   88   2.498   2.124   1.856 -0.1339  0.2020 -0.0620
    6TRP    HH2   89   2.582   2.113   1.788 -0.5115 -0.9379 -0.3560
    6TRP    CZ3   90   2.515   2.180   1.981  0.7550  0.4155 -0.3457
    6TRP    HZ3   91   2.614   2.218   2.001  1.0274 -0.2402 -0.4251
    6TRP    CE3   92   2.412   2.192   2.074  0.2953  0.4620 -1.2666
    6TRP    HE3   93   2.431   2.244   2.166 -0.1731  0.2263 -1.0393
    6TRP    CD2   94   2.286   2.143   2.041  0.3816 -0.0952  0.1568
    6TRP      C   95   2.289   2.049   2.355 -0.3951 -0.7221  0.1958
    6TRP      O   96   2.291   1.932   2.322  0.4607  0.2686  0.2981
    7LEU      N   97   2.402   2.111   2.389 -0.1719 -0.5416  0.3524
    7LEU      H   98   2.406   2.211   2.399 -1.6547 -0.4237  0.0493
    7LEU     CA   99   2.529   2.037   2.392 -0.3628 -0.3731 -0.0340
    7LEU     HA  100   2.537   1.985   2.296 -0.3054  0.7457 -0.6572
    7LEU     CB  101   2.640   2.146   2.391  0.0002 -0.4729  0.5045
    7LEU    HB1  102   2.634   2.200   2.486  1.0981  1.5043 -0.4723
    7LEU    HB2  103   2.624   2.225   2.317  0.9791 -0.2236  0.5487
    7LEU     CG  104   2.786   2.098   2.378 -1.1767  0.1953 -0.1493
    7LEU     HG  105   2.812   2.043   2.468 -2.1066 -1.1199 -0.6432
    7LEU    CD1  106   2.799   2.003   2.258 -0.1364 -0.2394 -0.2199
    7LEU   HD11  107   2.742   2.038   2.172 -0.8423 -0.9282 -0.0462
    7LEU   HD12  108   2.903   1.988   2.227  0.2782 -0.6452  1.3151
    7LEU   HD13  109   2.762   1.904   2.284 -0.3800 -0.1127 -0.0870
    7LEU    CD2  110   2.864   2.230   2.361  0.2878 -0.6277  0.3183
    7LEU   HD21  111   2.971   2.213   2.369  0.2237 -1.5030 -0.4830
    7LEU   HD22  112   2.854   2.259   2.256 -2.2915 -3.2366 -0.2821
    7LEU   HD23  113   2.831   2.307   2.431 -0.4565 -0.6349 -0.0175
    7LEU      C  114   2.543   1.937   2.507  0.1858 -0.2321 -0.0636
    7LEU      O  115   2.582   1.823   2.490 -0.0179 -0.3516 -0.4730
    8ALA      N  116   2.504   1.983   2.626 -0.6888 -0.1115  0.2428
    8ALA      H  117   2.470   2.078   2.630 -1.6414 -0.3958 -0.6913
    8ALA     CA  118   2.495   1.899   2.751 -0.2083 -0.3001  0.2640
    8ALA     HA  119   2.589   1.847   2.765  0.1101 -0.0283 -0.8362
    8ALA     CB  120   2.463   1.991   2.862  0.7760 -0.2843 -0.0426
    8ALA    HB1  121   2.453   1.935   2.954  0.9367  0.8438  0.6837
    8ALA    HB2  122   2.532   2.075   2.877 -1.7730  1.5507  2.3994
    8ALA    HB3  123   2.370   2.046   2.845 -0.3259 -1.2708  2.4139
    8ALA      C  124   2.394   1.780   2.744 -0.1756 -0.2415  0.2742
    8ALA      O  125   2.406   1.679   2.817 -0.3424  0.2911 -0.1270
    9ASP      N  126   2.290   1.789   2.661  0.1442 -0.5368 -0.6780
    9ASP      H  127   2.275   1.869   2.602 -2.7459 -2.2891 -2.5120
    9ASP     CA  128   2.186   1.687   2.636 -0.1509 -0.8855 -0.2554
    9ASP     HA  129   2.167   1.631   2.728  1.9996  1.0274  1.4647
    9ASP     CB  130   2.058   1.756   2.590  0.4704 -0.2564 -0.3003
    9ASP    HB1  131   2.065   1.802   2.491  1.2875 -1.6951 -0.9342
    9ASP    HB2  132   2.040   1.833   2.665 -0.5754 -1.6666  0.9453
    9ASP     CG  133   1.943   1.655   2.586 -0.6974  0.7436 -0.8224
    9ASP    OD1  134   1.919   1.594   2.693  0.1026  0.0261 -0.7064
    9ASP    OD2  135   1.883   1.632   2.482  0.0959  0.2222 -0.4371
    9ASP      C  136   2.244   1.595   2.519  0.4970  0.8642 -0.2201
    9ASP      O  137   2.191   1.485   2.502 -0.3034  0.3245  0.3848
   10GLY      N  138   2.355   1.629   2.449 -0.3530  0.1567  0.0661
   10GLY      H  139   2.396   1.716   2.479 -0.3822  0.4018 -0.5951
   10GLY     CA  140   2.423   1.557   2.336 -0.5924  0.3593  0.5587
   10GLY    HA1  141   2.423   1.450   2.359 -1.9127 -0.0966 -1.3228
   10GLY    HA2  142   2.522   1.596   2.315 -0.3761  0.0933  1.0815
   10GLY      C  143   2.342   1.572   2.205  0.3122 -0.3342  0.0258
   10GLY      O  144   2.344   1.481   2.125  0.1455  0.0363 -0.0446
   11GLY      N  145   2.292   1.691   2.182 -0.0866 -0.0336 -0.3108
   11GLY      H  146   2.297   1.752   2.261  0.6815  0.5276 -0.7789
   11GLY     CA  147   2.206   1.728   2.069 -0.8832 -1.0451 -0.0353
   11GLY    HA1  148   2.192   1.836   2.068 -0.8468 -1.0421 -0.8425
   11GLY    HA2  149   2.109   1.680   2.083 -1.8488  0.1863 -2.0047
   11GLY      C  150   2.250   1.703   1.922 -0.4795 -0.6271 -0.2009
   11GLY      O  151   2.166   1.655   1.839  0.2890  0.0401  0.2018
   12PRO      N  152   2.383   1.726   1.878 -0.0381  0.4051 -0.4788
   12PRO     CD  153   2.491   1.774   1.964 -0.1732  0.6833 -0.7761
   12PRO    HD1  154   2.512   1.697   2.038  1.6673  1.7231 -0.1545
   12PRO    HD2  155   2.455   1.861   2.018 -0.2422 -0.2744  0.7802
   12PRO     CG  156   2.617   1.793   1.876 -0.6551  0.4645 -0.1197
   12PRO    HG1  157   2.689   1.718   1.910 -1.7592 -0.5206  0.1201
   12PRO    HG2  158   2.655   1.895   1.875  0.9063 -0.0787 -0.8200
   12PRO     CB  159   2.569   1.753   1.737  0.1741 -0.1368 -0.4763
   12PRO    HB1  160   2.637   1.680   1.693  0.4544  0.5425 -1.1965
   12PRO    HB2  161   2.549   1.843   1.679 -2.4474 -0.6383 -0.4721
   12PRO     CA  162   2.435   1.679   1.749  0.5404  0.7308 -0.0671
   12PRO     HA  163   2.374   1.713   1.666 -0.0880 -1.5540 -0.6196
   12PRO      C  164   2.451   1.521   1.739  0.1856 -0.8033 -0.6022
   12PRO      O  165   2.460   1.468   1.626 -0.1888  0.1554  0.1466
   13SER      N  166   2.450   1.452   1.852 -0.3071  0.0487 -0.3897
   13SER      H  167   2.453   1.509   1.935 -1.1746 -0.3892 -0.0462
   13SER     CA  168   2.474   1.307   1.858  0.1834  0.2955 -0.2319
   13SER     HA  169   2.527   1.280   1.767  0.3931 -0.6384  0.1517
   13SER     CB  170   2.556   1.261   1.980  0.2735 -0.6763 -0.0065
   13SER    HB1  171   2.562   1.153   1.984 -0.0135 -0.6557  1.8770
   13SER    HB2  172   2.497   1.287   2.068  0.6852  0.8647 -0.1465
   13SER     OG  173   2.684   1.319   1.984  0.5699  0.1696 -0.4489
   13SER     HG  174   2.688   1.366   2.068 -0.8750  1.1838 -0.9115
   13SER      C  175   2.332   1.242   1.845 -0.8465  0.5157  0.1149
   13SER      O  176   2.316   1.133   1.786 -0.2503  0.3129  0.1244
   14SER      N  177   2.229   1.307   1.908 -0.8554  0.4342  0.1391
   14SER      H  178   2.241   1.392   1.959  0.1374 -0.2109  1.0247
   14SER     CA  179   2.095   1.248   1.904 -0.1112  0.1805 -0.2903
   14SER     HA  180   2.100   1.139   1.903 -2.0666 -0.0102  1.7578
   14SER     CB  181   2.022   1.291   2.031 -0.2785 -0.1549  0.1957
   14SER    HB1  182   2.096   1.267   2.108 -0.3853 -1.9574 -0.2225
   14SER    HB2  183   1.930   1.235   2.054  0.3008 -1.4381 -0.4998
   14SER     OG  184   1.991   1.431   2.039  0.1299  0.1631  0.3854
   14SER     HG  185   2.005   1.461   2.129  0.7121  0.0843  0.3201
   14SER      C  186   2.017   1.297   1.783 -0.6041 -0.3992 -0.1194
   14SER      O  187   1.907   1.250   1.770  0.5780  0.2469  0.4789
   15GLY      N  188   2.066   1.400   1.709  0.7941 -0.2119 -0.1166
   15GLY      H  189   2.154   1.433   1.747  1.6323 -2.7407  0.3354
   15GLY     CA  190   1.999   1.468   1.596 -0.3240  0.5875 -0.1158
   15GLY    HA1  191   1.928   1.396   1.553 -1.2189  0.3617  1.6330
   15GLY    HA2  192   2.075   1.486   1.520  2.8159 -0.8074  2.4556
   15GLY      C  193   1.912   1.591   1.622  0.3617  0.1868 -0.8539
   15GLY      O  194   1.865   1.655   1.525  0.0691 -0.9211 -0.4529
   16ARG      N  195   1.891   1.625   1.748 -0.1999  0.2283  0.1032
   16ARG      H  196   1.945   1.578   1.819  0.1220 -1.6980 -1.3542
   16ARG     CA  197   1.798   1.737   1.786 -0.4300  0.1561 -0.4281
   16ARG     HA  198   1.697   1.707   1.758 -0.2113 -1.5896  0.5375
   16ARG     CB  199   1.808   1.747   1.944 -0.3986  0.0864  0.0219
   16ARG    HB1  200   1.909   1.746   1.986 -0.0282  1.9942 -0.7301
   16ARG    HB2  201   1.756   1.663   1.991 -2.3384  1.8369  1.1693
   16ARG     CG  202   1.731   1.869   2.002  0.0743  0.7949 -0.3505
   16ARG    HG1  203   1.763   1.957   1.946  0.1270  1.7782  1.1741
   16ARG    HG2  204   1.768   1.878   2.104  1.1869  2.9649 -0.8675
   16ARG     CD  205   1.583   1.853   1.993  0.1665 -0.3793  0.9844
   16ARG    HD1  206   1.551   1.782   2.069 -0.9976 -1.7956 -0.7450
   16ARG    HD2  207   1.564   1.829   1.889  0.6276 -0.7872  0.9895
   16ARG     NE  208   1.510   1.971   2.032  0.6385 -0.0524  0.7481
   16ARG     HE  209   1.556   2.047   2.080  0.6745  0.5360 -0.1967
   16ARG     CZ  210   1.380   1.983   2.030 -0.3261 -0.1644 -0.0934
   16ARG    NH1  211   1.303   1.891   1.975  0.0963  0.3646  0.0364
   16ARG   HH11  212   1.341   1.826   1.908 -1.3689  1.3472 -1.8546
   16ARG   HH12  213   1.203   1.905   1.975  0.0990  0.5729  1.6166
   16ARG    NH2  214   1.335   2.098   2.079  0.0669 -0.6660  0.0439
   16ARG   HH21  215   1.397   2.174   2.101  0.6901 -1.0443 -0.3817
   16ARG   HH22  216   1.240   2.105   2.112 -0.2043  2.2261 -1.0813
   16ARG      C  217   1.848   1.869   1.725 -0.8107 -0.2372  0.1387
   16ARG      O  218   1.968   1.892   1.737 -0.4549  0.1883 -0.0382
   17PRO      N  219   1.764   1.954   1.663 -0.0524 -0.4429  0.4314
   17PRO     CD  220   1.622   1.950   1.641  0.4980 -0.3255 -0.8017
   17PRO    HD1  221   1.570   2.004   1.719  0.1610 -0.0943 -1.1829
   17PRO    HD2  222   1.586   1.847   1.633 -0.2815 -0.2493  1.2676
   17PRO     CG  223   1.591   2.028   1.513 -0.0586 -1.3512  0.1496
   17PRO    HG1  224   1.488   2.060   1.498  1.1959  2.7317 -0.9919
   17PRO    HG2  225   1.628   1.985   1.420  2.2623  1.4840 -0.3718
   17PRO     CB  226   1.695   2.145   1.525 -0.1936  0.0956 -0.1432
   17PRO    HB1  227   1.660   2.231   1.583  2.1487  1.1001 -0.1009
   17PRO    HB2  228   1.733   2.172   1.427  0.0155 -1.4900 -0.5368
   17PRO     CA  229   1.815   2.078   1.603  0.1450  0.1680  0.7899
   17PRO     HA  230   1.890   2.044   1.532 -0.8985 -1.0516  0.2427
   17PRO      C  231   1.865   2.184   1.700  0.6799 -0.2027  0.3178
   17PRO      O  232   1.813   2.183   1.814 -0.5044  0.2242 -0.5606
   18PRO      N  233   1.956   2.272   1.657 -0.7963  0.3515  0.7429
   18PRO     CD  234   2.015   2.282   1.522  0.4958 -0.2539  0.1073
   18PRO    HD1  235   1.948   2.343   1.462  1.0437 -0.1753 -0.4452
   18PRO    HD2  236   2.032   2.181   1.484 -1.7785 -0.9858  0.9066
   18PRO     CG  237   2.146   2.361   1.538 -0.1536 -0.3161 -0.6147
   18PRO    HG1  238   2.160   2.407   1.440 -0.3322  0.1552 -0.4225
   18PRO    HG2  239   2.230   2.295   1.560  1.1922  1.4763 -0.0702
   18PRO     CB  240   2.123   2.445   1.665  0.5497 -0.0326  0.1943
   18PRO    HB1  241   2.098   2.543   1.624  1.4060 -1.1221 -3.2322
   18PRO    HB2  242   2.209   2.453   1.732  1.1196 -2.1465 -0.2220
   18PRO     CA  243   2.010   2.372   1.739 -0.8347 -0.6081 -0.1588
   18PRO     HA  244   2.061   2.314   1.816  0.5300  1.0745  0.2725
   18PRO      C  245   1.904   2.473   1.795  0.1181  0.5548 -0.2017
   18PRO      O  246   1.815   2.516   1.725  0.2040  0.3768  0.0322
   19PRO      N  247   1.914   2.510   1.922  0.1522 -0.3394  0.2585
   19PRO     CD  248   2.012   2.469   2.019  0.0702  0.5410  0.6011
   19PRO    HD1  249   2.114   2.467   1.981 -0.3865  1.2541 -0.7494
   19PRO    HD2  250   1.970   2.377   2.059 -1.2071  2.1917  3.3523
   19PRO     CG  251   1.997   2.554   2.141  0.4234  0.3626 -0.4180
   19PRO    HG1  252   2.048   2.649   2.125  0.4401  1.0198  2.8541
   19PRO    HG2  253   2.012   2.506   2.238 -1.5318  2.7702  1.1917
   19PRO     CB  254   1.849   2.594   2.138  0.0191  0.0073  0.2953
   19PRO    HB1  255   1.826   2.685   2.194 -1.0964  0.7124 -1.2259
   19PRO    HB2  256   1.787   2.513   2.175  1.6477 -0.7228  1.5532
   19PRO     CA  257   1.825   2.613   1.987 -0.5056  0.3404  1.1357
   19PRO     HA  258   1.722   2.592   1.960 -0.0683  0.5158 -0.7980
   19PRO      C  259   1.859   2.754   1.947  0.1777 -0.4549  0.3883
   19PRO      O  260   1.956   2.791   1.884 -0.2679  0.2076 -0.4686
   20SER      N  261   1.770   2.845   1.995  0.5686 -0.3480  0.1339
   20SER      H  262   1.690   2.812   2.048 -0.1158  2.1115  0.7611
   20SER     CA  263   1.784   2.994   2.005 -0.7801  0.3803 -0.2103
   20SER     HA  264   1.843   3.033   1.922  0.1271  0.7297  0.5783
   20SER     CB  265   1.650   3.065   2.012  0.0823 -0.2777 -0.2320
   20SER    HB1  266   1.666   3.168   2.044 -0.1659 -1.1869  3.1388
   20SER    HB2  267   1.595   3.022   2.096  0.2540  0.4731  0.2671
   20SER     OG  268   1.591   3.034   1.886 -0.1080 -0.6866 -0.3117
   20SER     HG  269   1.644   2.959   1.858  0.4492 -0.2078 -0.5723
   20SER      C  270   1.872   3.020   2.129 -0.4808 -0.0749  0.1039
   20SER    OC1  271   1.970   3.091   2.106 -0.0239 -0.3129 -0.3491
   20SER    OC2  272   1.853   2.962   2.236 -0.4560  0.6281 -0.5457
   21SOL     OW  273   1.910   2.890   0.615  0.7391 -0.6356  0.2626
   21SOL    HW1  274   1.989   2.836   0.619  0.7561 -0.9921 -2.6545
   21SOL    HW2  275   1.838   2.828   0.606  0.3972 -0.2623  0.3786
   22SOL     OW  276   3.206   1.687   0.426  0.3022 -0.5173 -0.3319
   22SOL    HW1  277   3.269   1.757   0.442 -0.0509 -0.7603  2.8878
   22SOL    HW2  278   3.253   1.624   0.371  0.9760  1.6576 -2.4324
   23SOL     OW  279   2.167   1.862   1.015 -0.3022 -0.1288 -0.2526
   23SOL    HW1  280   2.133   1.951   1.011 -0.2580  0.0911  2.2154
   23SOL    HW2  281   2.159   1.838   1.108  1.3120 -2.0389 -0.5338
   24SOL     OW  282   0.307   3.865   0.234 -0.6455  0.0896 -0.0486
   24SOL    HW1  283   0.396   3.877   0.200  0.1933 -0.8937  1.6868
   24SOL    HW2  284   0.310   3.781   0.280 -2.1577  0.5916  1.0431
   25SOL     OW  285   1.785   0.366   1.489  0.2382  0.3472  0.4343
   25SOL    HW1  286   1.867   0.358   1.537  0.6136 -0.9932 -0.3817
   25SOL    HW2  287   1.780   0.287   1.435 -0.5924  1.3589 -1.0602
   26SOL     OW  288   2.748   2.267   0.196 -0.1549  0.4919  0.4593
   26SOL    HW1  289   2.690   2.227   0.131  1.2230 -0.9947  0.1083
   26SOL    HW2  290   2.751   2.203   0.267 -0.0536  1.2141  1.1180
   27SOL     OW  291   2.985   4.195   3.328  0.5274 -0.1726  0.2273
   27SOL    HW1  292   2.964   4.102   3.318 -1.2799 -0.0831  2.3352
   27SOL    HW2  293   2.917   4.240   3.278  0.5915  0.0145  0.3077
   28SOL     OW  294   2.502   2.346   1.044 -0.4492 -0.5860  0.5449
   28SOL    HW1  295   2.448   2.315   0.972 -0.7385  0.9585  0.0583
   28SOL    HW2  296   2.477   2.291   1.118 -2.2533 -0.3166  0.1785
   29SOL     OW  297   2.663   0.522   3.409 -0.2514 -0.4426  0.6678
   29SOL    HW1  298   2.665   0.434   3.370  1.1170 -1.3459  2.6147
   29SOL    HW2  299   2.578   0.526   3.453 -0.4229 -0.6974  0.3665
   30SOL     OW  300   0.709   1.513   0.169 -0.4486 -0.6152 -0.4014
   30SOL    HW1  301   0.795   1.506   0.129  0.2646  0.1827  0.9246
   30SOL    HW2  302   0.650   1.469   0.108  0.7886 -0.5923 -1.6490
   31SOL     OW  303   3.714   3.724   1.312 -0.4959 -0.0076 -0.0349
   31SOL    HW1  304   3.714   3.716   1.408  0.6787 -1.8667 -0.1427
   31SOL    HW2  305   3.769   3.801   1.295  0.5352 -0.5295  0.7672
   32SOL     OW  306   0.951   1.262   1.590  0.3751 -0.8461  0.4974
   32SOL    HW1  307   1.039   1.241   1.621 -0.1732 -1.7203  1.5059
   32SOL    HW2  308   0.898   1.268   1.669  0.2091  3.3435  0.2927
   33SOL     OW  309   1.395   3.750   0.176  0.0387  0.5958 -0.2508
   33SOL    HW1  310   1.413   3.830   0.126  0.5780  0.6700  0.0455
   33SOL    HW2  311   1.416   3.774   0.267  0.2791  0.0979 -0.1694
   34SOL     OW  312   2.565   2.970   2.356 -0.1956 -0.1522 -1.0226
   34SOL    HW1  313   2.535   3.061   2.359  0.8606  0.2016 -1.0928
   34SOL    HW2  314   2.524   2.928   2.432 -0.1605  0.5423 -0.6199
   35SOL     OW  315   0.545   3.065   3.849 -0.4594  0.4387  0.0794
   35SOL    HW1  316   0.637   3.073   3.874  0.2386  0.2542 -2.2172
   35SOL    HW2  317   0.513   3.155   3.843 -0.0351  0.5596 -0.4205
   36SOL     OW  318   0.035   1.394   2.500  0.1271 -0.1369 -0.4255
   36SOL    HW1  319   0.051   1.468   2.557 -1.1214 -1.4997  1.8680
   36SOL    HW2  320  -0.061   1.386   2.498  0.2284 -1.5128 -0.7912
   37SOL     OW  321   0.007   3.535   2.781 -0.0547 -0.6327  0.5908
   37SOL    HW1  322  -0.017   3.600   2.716 -0.3109 -2.0644 -0.8322
   37SOL    HW2  323  -0.020   3.451   2.743  1.2938 -1.6953  1.8070
   38SOL     OW  324   0.984   3.950   2.128  0.2615  0.1866 -0.4912
   38SOL    HW1  325   1.038   3.875   2.102  0.2662  0.7803 -2.2883
   38SOL    HW2  326   0.908   3.946   2.071  0.7833  2.1649 -1.4041
   39SOL     OW  327   0.842   2.209   0.129  0.4015 -0.3443  0.8086
   39SOL    HW1  328   0.790   2.130   0.141 -0.7200  0.1716 -0.3647
   39SOL    HW2  329   0.898   2.214   0.206 -1.5600 -0.7371  2.3134
   40SOL     OW  330   2.811   2.481   3.011 -0.3582 -0.0204 -0.3690
   40SOL    HW1  331   2.860   2.534   3.074  0.6714  1.6481 -2.4501
   40SOL    HW2  332   2.719   2.494   3.036  0.0182  0.7402  0.6870
   41SOL     OW  333   1.601   0.958   2.201 -0.0386 -0.5250  0.5597
   41SOL    HW1  334   1.583   1.003   2.118 -0.7197 -1.4606  0.1735
   41SOL    HW2  335   1.540   0.997   2.264 -0.3553 -0.6190  0.3194
   42SOL     OW  336   1.341   1.889   2.950  0.1091 -0.2406 -0.3882
   42SOL    HW1  337   1.368   1.980   2.960 -1.6331  0.1655  1.0230
   42SOL    HW2  338   1.401   1.839   3.005 -0.7536  0.4215  1.1969
   43SOL     OW  339   1.797   1.166   1.351  0.4073 -0.2836  0.3312
   43SOL    HW1  340   1.786   1.093   1.290  1.0661 -2.0408  2.1939
   43SOL    HW2  341   1.804   1.125   1.437 -1.2417  2.1233  1.7464
   44SOL     OW  342   4.008   2.607   2.285  0.5082 -0.5009  0.1852
   44SOL    HW1  343   3.981   2.516   2.283  0.2567 -0.4949  1.9609
   44SOL    HW2  344   3.954   2.649   2.217 -0.3796 -1.4057  0.3045
   45SOL     OW  345   1.654   2.327   1.046  0.4910 -0.4141  0.1053
   45SOL    HW1  346   1.736   2.365   1.014  0.7325 -0.3541  0.7661
   45SOL    HW2  347   1.669   2.233   1.046 -0.3534 -0.6013 -2.1977
   46SOL     OW  348   3.205   2.140   0.761 -0.2829 -0.1831 -0.5680
   46SOL    HW1  349   3.200   2.064   0.702  0.0059  1.1965 -2.4605
   46SOL    HW2  350   3.126   2.190   0.741  0.2181  0.7126 -0.3353
   47SOL     OW  351   1.067   3.576   4.239 -0.4526 -0.0662  0.1471
   47SOL    HW1  352   1.106   3.636   4.302  1.9043 -0.9275 -0.3898
   47SOL    HW2  353   1.104   3.491   4.260  1.7182 -0.1749 -3.2041
   48SOL     OW  354   3.137   3.588   3.757  0.5495  0.2647 -0.0657
   48SOL    HW1  355   3.175   3.675   3.742  3.1377 -0.5701  1.1155
   48SOL    HW2  356   3.187   3.552   3.830  1.8272 -3.5094 -2.5153
   49SOL     OW  357   2.716   2.585   0.762  0.3905  0.4222 -0.1345
   49SOL    HW1  358   2.713   2.601   0.856  0.7303 -1.1497  0.1774
   49SOL    HW2  359   2.807   2.560   0.745  0.1616 -0.0203 -0.7467
   50SOL     OW  360   3.515   0.537   0.444 -0.3288 -0.1081 -0.1571
   50SOL    HW1  361   3.545   0.591   0.517 -0.2828 -0.2656 -0.0585
   50SOL    HW2  362   3.422   0.559   0.436 -0.0088  1.0192 -1.0226
   51SOL     OW  363   0.530   0.233   2.887 -0.1742 -0.0997  0.3189
   51SOL    HW1  364   0.526   0.308   2.828 -0.7090  0.7527  1.4026
   51SOL    HW2  365   0.624   0.215   2.897 -0.0394  0.5279  0.1871
   52SOL     OW  366   2.057   4.296   3.594 -0.4886  0.4327  0.1468
   52SOL    HW1  367   2.119   4.245   3.543 -1.0370 -0.6452  0.5307
   52SOL    HW2  368   2.058   4.255   3.681  0.3829  2.1778  1.0290
   53SOL     OW  369   1.483   2.336   0.814 -0.0986 -0.4985 -0.3098
   53SOL    HW1  370   1.397   2.370   0.838  0.6403  2.4187 -1.2746
   53SOL    HW2  371   1.527   2.320   0.897 -0.6464  0.7082  0.2437
   54SOL     OW  372   3.819   2.904   1.871  1.2115 -0.4000 -0.2106
   54SOL    HW1  373   3.792   2.972   1.808  1.7966  0.5896  0.5773
   54SOL    HW2  374   3.839   2.953   1.951 -0.2386 -1.6915  1.0016
   55SOL     OW  375   1.728   0.636   0.931 -0.1483  0.0762  0.1802
   55SOL    HW1  376   1.749   0.589   1.012  2.3651  2.2632  0.9348
   55SOL    HW2  377   1.805   0.625   0.876 -1.2956 -0.2457 -1.4467
   56SOL     OW  378   0.166   4.260   2.687  0.5545 -0.2670  0.1971
   56SOL    HW1  379   0.254   4.242   2.653 -0.2468  0.4223 -2.5133
   56SOL    HW2  380   0.180   4.326   2.755  2.1731 -0.6973  0.3370
   57SOL     OW  381   2.401   3.787   0.698  0.0225  0.4521  0.1721
   57SOL    HW1  382   2.348   3.813   0.774  1.3359  1.7820  0.6669
   57SOL    HW2  383   2.400   3.863   0.640  0.2853 -0.0017 -0.4406
   58SOL     OW  384   2.019   3.394   1.465  0.5352 -0.1983 -0.6504
   58SOL    HW1  385   2.088   3.457   1.487 -0.8749  0.5440  2.2230
   58SOL    HW2  386   2.044   3.314   1.511  0.3337 -0.4733 -1.0163
   59SOL     OW  387   1.921   3.509   0.357 -0.5419 -0.3670 -0.0236
   59SOL    HW1  388   1.991   3.497   0.293  0.4138 -1.4399  1.1706
   59SOL    HW2  389   1.939   3.444   0.425 -1.4704  0.7844  1.3832
   60SOL     OW  390   1.701   0.104   1.785  0.1165  0.3358 -0.2222
   60SOL    HW1  391   1.634   0.036   1.788  0.2672  0.1619 -0.7805
   60SOL    HW2  392   1.657   0.182   1.817 -0.6890  0.5040 -1.7029
   61SOL     OW  393   1.544   2.513   2.389 -0.2208 -0.5706 -0.1889
   61SOL    HW1  394   1.596   2.434   2.404  0.2254 -0.7441 -2.3075
   61SOL    HW2  395   1.526   2.547   2.477  1.9574 -1.4781  0.6858
   62SOL     OW  396   1.201   1.124   0.897 -0.2338 -0.0526 -0.0925
   62SOL    HW1  397   1.265   1.126   0.826  2.3571  1.8071  2.0793
   62SOL    HW2  398   1.229   1.050   0.952 -0.0127  0.6820  0.7960
   63SOL     OW  399   3.418   0.172   3.535  0.0227  0.2611 -0.3604
   63SOL    HW1  400   3.429   0.081   3.564  0.1521  0.5313  0.4607
   63SOL    HW2  401   3.504   0.212   3.549 -0.3543  0.8211  0.4495
   64SOL     OW  402   3.178   1.621   3.132  0.2965 -0.5532  0.2735
   64SOL    HW1  403   3.091   1.655   3.155  0.7809  1.1158 -0.2295
   64SOL    HW2  404   3.239   1.686   3.168  1.3033 -1.1659 -0.2899
   65SOL     OW  405   1.389   2.079   0.666 -0.5095  0.9047 -0.7647
   65SOL    HW1  406   1.300   2.108   0.690 -0.4167  0.4298  0.1861
   65SOL    HW2  407   1.445   2.119   0.732 -0.0054  1.1765 -1.3468
   66SOL     OW  408   0.860   1.961   2.812 -0.1658  0.9352 -0.4884
   66SOL    HW1  409   0.915   2.038   2.798 -0.9617  1.5632 -0.2270
   66SOL    HW2  410   0.922   1.889   2.822  0.6054  1.6158 -0.2712
   67SOL     OW  411   1.060   2.609   1.281 -0.4157 -0.9351  0.3246
   67SOL    HW1  412   1.155   2.612   1.296 -0.4818 -0.2547  0.6475
   67SOL    HW2  413   1.027   2.691   1.319 -0.8279  0.0824 -2.0183
   68SOL     OW  414   1.668   1.557   4.183 -0.1145 -0.2896 -0.3848
   68SOL    HW1  415   1.760   1.534   4.170  0.2957  0.8372  0.3738
   68SOL    HW2  416   1.669   1.621   4.254 -1.4987 -0.3180 -0.3179
   69SOL     OW  417   0.458   0.227   0.691 -1.0689 -0.2088  0.0805
   69SOL    HW1  418   0.538   0.191   0.654  0.3910  1.2866  1.6235
   69SOL    HW2  419   0.459   0.319   0.666 -1.0614  0.3694  2.0830
   70SOL     OW  420   0.089   2.536   1.655  0.4893  0.1646  0.1899
   70SOL    HW1  421  -0.005   2.523   1.642  0.0899  1.5612  1.4733
   70SOL    HW2  422   0.109   2.618   1.611  1.2402 -0.3855 -0.5369
   71SOL     OW  423   3.291   2.329   0.143  0.5411  0.0407 -0.1182
   71SOL    HW1  424   3.353   2.262   0.114  1.1464  0.2851  0.5855
   71SOL    HW2  425   3.300   2.400   0.079  0.8207 -0.0127 -0.1367
   72SOL     OW  426   0.850   1.785   1.628 -0.0460  0.0638 -0.1986
   72SOL    HW1  427   0.829   1.876   1.609 -0.5805  0.3024  1.4320
   72SOL    HW2  428   0.939   1.773   1.595  0.4746  1.5179  0.6327
   73SOL     OW  429   1.391   1.335   1.853 -0.7442 -0.1429 -0.6626
   73SOL    HW1  430   1.350   1.361   1.935 -0.2680 -1.7135  0.1100
   73SOL    HW2  431   1.481   1.313   1.876  0.2711  2.0682 -2.1187
   74SOL     OW  432   0.873   3.692   1.052 -0.1793 -0.3412  0.5378
   74SOL    HW1  433   0.915   3.606   1.045  0.3097 -0.0358 -0.5497
   74SOL    HW2  434   0.917   3.746   0.986  0.3147  1.0970  1.9708
   75SOL     OW  435   4.151   0.536   0.760 -0.6063 -0.4266  0.3901
   75SOL    HW1  436   4.183   0.454   0.799 -0.8304 -1.5404 -1.6769
   75SOL    HW2  437   4.056   0.530   0.765 -0.6454 -0.7156 -0.5590
   76SOL     OW  438   3.499   1.368   2.010 -0.1836 -0.2469 -0.1209
   76SOL    HW1  439   3.452   1.375   2.093 -3.9456  1.8246 -2.1488
   76SOL    HW2  440   3.504   1.273   1.994  0.4443 -0.6874  2.2717
   77SOL     OW  441   1.282   0.284   3.967 -0.4947  0.6008  0.1733
   77SOL    HW1  442   1.352   0.292   3.902  0.1801 -1.3520  0.5993
   77SOL    HW2  443   1.203   0.266   3.915 -0.1884  0.2331 -0.1709
   78SOL     OW  444   0.313   0.758   1.277  0.3294 -0.5069  0.2893
   78SOL    HW1  445   0.360   0.724   1.201 -2.0673  0.6300 -1.8647
   78SOL    HW2  446   0.311   0.853   1.263 -0.7316 -0.3426  1.4085
   79SOL     OW  447   4.118   0.637   2.906 -0.2407 -0.0135  0.2671
   79SOL    HW1  448   4.080   0.550   2.894 -0.4132  0.1065 -0.0692
   79SOL    HW2  449   4.202   0.633   2.862 -0.1767 -0.0574  0.3908
   80SOL     OW  450   3.551   3.310   3.396  0.8894 -0.0202  0.1301
   80SOL    HW1  451   3.584   3.311   3.306  1.2611 -0.5272  0.2540
   80SOL    HW2  452   3.607   3.247   3.441 -1.5626 -2.6338 -0.1652
   81SOL     OW  453   1.155   2.025   3.254  0.6419  0.8101  0.2483
   81SOL    HW1  454   1.224   2.042   3.191  0.6402 -0.9265 -0.2687
   81SOL    HW2  455   1.144   2.108   3.301  1.7103  1.6735 -0.9705
   82SOL     OW  456   2.206   1.819   1.297 -0.1112  0.2453  0.1631
   82SOL    HW1  457   2.186   1.857   1.382  0.4193  0.1211  0.3460
   82SOL    HW2  458   2.214   1.725   1.314  1.0801  0.3413  0.1850
   83SOL     OW  459   3.294   2.907   3.015 -0.7785  0.2959 -0.1568
   83SOL    HW1  460   3.230   2.977   3.004 -0.8742  0.1125 -0.7802
   83SOL    HW2  461   3.369   2.934   2.962  0.0198  0.9258  1.2234
   84SOL     OW  462   1.196   1.899   1.281 -0.2975 -0.1146 -0.6080
   84SOL    HW1  463   1.140   1.973   1.307  1.0156  0.7269 -0.1072
   84SOL    HW2  464   1.201   1.906   1.185 -0.4311  0.2610 -0.5890
   85SOL     OW  465   1.429   1.112   1.407  0.0106 -0.3061 -0.2412
   85SOL    HW1  466   1.459   1.175   1.472  0.6212  1.3028 -2.0077
   85SOL    HW2  467   1.467   1.142   1.324  0.6415 -3.2126 -1.1205
   86SOL     OW  468   1.086   1.854   3.464  0.9396  0.2856  0.9049
   86SOL    HW1  469   1.027   1.786   3.432  1.1753 -0.6676  2.3751
   86SOL    HW2  470   1.098   1.913   3.390 -1.0495 -0.0391  0.2720
   87SOL     OW  471   4.043   4.156   0.923  0.3756  0.0107  0.0483
   87SOL    HW1  472   4.074   4.242   0.951  1.4494 -0.5199  0.5253
   87SOL    HW2  473   4.061   4.153   0.829 -1.0592  0.8731 -0.2834
   88SOL     OW  474   0.499   2.915   2.317  0.2251 -0.8454 -0.1217
   88SOL    HW1  475   0.512   2.838   2.262 -0.0680 -1.5389  0.7512
   88SOL    HW2  476   0.437   2.887   2.384 -2.5142  1.1166 -1.6554
   89SOL     OW  477   0.078   0.101   2.402  0.0143 -0.7043  0.4977
   89SOL    HW1  478   0.002   0.094   2.344  0.5246 -0.7514 -0.1722
   89SOL    HW2  479   0.057   0.174   2.459  0.2856  0.5338 -0.9347
   90SOL     OW  480   1.669   1.511   3.037  0.1744  0.5322  0.9412
   90SOL    HW1  481   1.734   1.443   3.056  0.0942  0.6599  1.7111
   90SOL    HW2  482   1.607   1.469   2.977  2.0396  1.0061 -1.5107
   91SOL     OW  483   1.035   4.000   1.791 -0.1124  0.3089 -0.4829
   91SOL    HW1  484   0.970   3.957   1.846 -0.9591  3.2053  0.9856
   91SOL    HW2  485   1.003   3.987   1.702 -0.8942 -1.1009 -0.0254
   92SOL     OW  486   3.912   0.107   1.881  0.1887 -0.0958  1.1947
   92SOL    HW1  487   4.003   0.136   1.868 -0.3253  1.2574  0.2921
   92SOL    HW2  488   3.860   0.179   1.846 -1.2305 -1.5103  0.2849
   93SOL     OW  489   0.039   2.360   3.834  0.0385  0.1958 -0.1089
   93SOL    HW1  490   0.022   2.267   3.825  0.1142  0.1348  0.3535
   93SOL    HW2  491   0.070   2.387   3.748 -1.8894  0.2189 -0.8465
   94SOL     OW  492   3.404   2.043   1.463  0.0495 -0.0792  0.4268
   94SOL    HW1  493   3.473   2.017   1.402  0.5212  0.4389  0.7309
   94SOL    HW2  494   3.358   2.115   1.419 -1.7790 -1.8854 -0.7722
   95SOL     OW  495   2.027   0.304   0.236  0.2437  0.1721 -0.5885
   95SOL    HW1  496   1.940   0.266   0.246  0.2639 -0.0891 -1.3899
   95SOL    HW2  497   2.034   0.366   0.309 -0.9138  0.7628 -0.9534
   96SOL     OW  498   3.692   0.607   0.222  0.0273  0.1356  0.1660
   96SOL    HW1  499   3.735   0.671   0.279  1.3485 -0.0354 -0.6092
   96SOL    HW2  500   3.607   0.593   0.263 -0.0806  1.9531  0.6819
   97SOL     OW  501   1.264   2.464   0.912 -0.3346 -0.2768 -0.0493
   97SOL    HW1  502   1.276   2.557   0.931 -0.5231 -0.5738  1.6956
   97SOL    HW2  503   1.185   2.439   0.960 -0.1584 -1.3880 -0.3038
   98SOL     OW  504   3.505   1.732   1.512 -0.2146 -0.5277  0.4400
   98SOL    HW1  505   3.526   1.820   1.483 -2.8199  0.2431  0.6752
   98SOL    HW2  506   3.471   1.742   1.600 -0.1659 -1.8388  0.6365
   99SOL     OW  507   1.233   4.237   3.896  0.0607  0.0461 -0.4302
   99SOL    HW1  508   1.213   4.173   3.827 -0.3629 -1.4698  1.0360
   99SOL    HW2  509   1.162   4.227   3.959 -0.0536  2.0545 -0.1980
  100SOL     OW  510   0.219   3.540   1.030 -0.2261  0.3454 -0.2593
  100SOL    HW1  511   0.280   3.577   0.967 -0.4818  1.5012  0.1418
  100SOL    HW2  512   0.266   3.467   1.070  1.2777  1.7970  0.7153
  101SOL     OW  513   1.672   1.041   0.546  0.4142  0.0454 -0.6971
  101SOL    HW1  514   1.683   0.970   0.482  2.5592 -0.4595  0.1755
  101SOL    HW2  515   1.682   1.121   0.494  1.5237 -0.3469 -1.1143
  102SOL     OW  516   1.234   1.850   0.673  0.0086  0.1578 -0.1188
  102SOL    HW1  517   1.228   1.780   0.738  0.9937 -0.5365 -0.7458
  102SOL    HW2  518   1.296   1.912   0.711  0.1684  0.0197 -0.1517
  103SOL     OW  519   3.816   0.405   0.618 -0.4365  0.2564 -0.2794
  103SOL    HW1  520   3.845   0.325   0.662  1.2413  0.5369 -0.7976
  103SOL    HW2  521   3.831   0.475   0.682 -1.7938  0.1885  0.1317
  104SOL     OW  522   1.914   3.298   3.982  0.2231 -0.3944 -0.1926
  104SOL    HW1  523   1.985   3.335   4.035  1.0298 -0.7626 -0.9819
  104SOL    HW2  524   1.957   3.234   3.927 -0.4220  0.6436 -1.9786
  105SOL     OW  525   2.304   3.210   1.762  0.1770  0.1001 -0.3512
  105SOL    HW1  526   2.370   3.202   1.693 -0.2376  0.3534 -0.7860
  105SOL    HW2  527   2.228   3.248   1.718 -0.5399 -0.9254 -0.0409
  106SOL     OW  528   3.949   3.429   2.814 -0.4099  0.5406  0.1400
  106SOL    HW1  529   3.913   3.449   2.900 -2.5329  1.0092 -0.8022
  106SOL    HW2  530   3.950   3.512   2.768  0.7876  0.3079 -0.2870
  107SOL     OW  531   1.869   1.787   3.871  0.0641  0.2180 -0.8938
  107SOL    HW1  532   1.860   1.743   3.956 -0.4720 -0.4271 -1.2736
  107SOL    HW2  533   1.952   1.833   3.877  1.6068 -2.3294 -1.1225
  108SOL     OW  534   2.637   3.369   1.219  0.1993  0.2014 -0.1037
  108SOL    HW1  535   2.571   3.364   1.289 -1.2944  0.1178 -1.4488
  108SOL    HW2  536   2.602   3.313   1.150  1.6776  0.2245 -0.8988
  109SOL     OW  537   1.443   2.195   1.247  0.1585  1.0674 -1.0633
  109SOL    HW1  538   1.537   2.207   1.231  0.4747  1.2254  0.7206
  109SOL    HW2  539   1.415   2.278   1.286 -0.1911  0.2238  0.5623
  110SOL     OW  540   4.084   2.536   0.054  0.6301 -0.1627  0.1629
  110SOL    HW1  541   4.031   2.611   0.084  1.5758 -0.1449  1.8868
  110SOL    HW2  542   4.024   2.487  -0.002 -1.0217  0.2461  1.4556
  111SOL     OW  543   1.506   0.850   0.163 -0.4734  0.7801  0.0112
  111SOL    HW1  544   1.417   0.866   0.132 -0.8223  0.4930  0.8280
  111SOL    HW2  545   1.548   0.936   0.164 -1.7638  1.4858  2.6863
  112SOL     OW  546   0.043   3.359   0.766  0.3255  0.3470  0.1111
  112SOL    HW1  547  -0.007   3.378   0.846 -3.6064 -3.8252 -0.9572
  112SOL    HW2  548  -0.012   3.392   0.695 -0.1174 -2.5770 -1.0409
  113SOL     OW  549   1.039   0.128   3.064  0.3276 -0.1319 -0.0634
  113SOL    HW1  550   1.024   0.035   3.076  2.4305 -0.4568  0.3014
  113SOL    HW2  551   1.112   0.149   3.122  0.4078  1.5837 -0.7234
  114SOL     OW  552   1.659   4.161   1.438  0.5709 -0.3353  0.2105
  114SOL    HW1  553   1.635   4.076   1.402  0.7624 -0.3019  0.0036
  114SOL    HW2  554   1.599   4.173   1.512 -0.2469 -0.1147 -0.4729
  115SOL     OW  555   1.152   1.241   0.175 -0.0366 -0.0204  0.0076
  115SOL    HW1  556   1.071   1.230   0.224 -0.3211  1.2028 -0.1569
  115SOL    HW2  557   1.206   1.298   0.231  0.3991 -0.1890 -0.2355
  116SOL     OW  558   0.761   0.592   0.141  0.1025  0.0868  0.5676
  116SOL    HW1  559   0.713   0.540   0.206 -0.0507 -1.5017 -0.7225
  116SOL    HW2  560   0.699   0.659   0.113 -0.8189 -0.9079  0.1380
  117SOL     OW  561   0.323   0.037   2.264 -0.3482  1.4012 -0.1200
  117SOL    HW1  562   0.350   0.122   2.228 -0.4659  1.1726 -0.7520
  117SOL    HW2  563   0.240   0.055   2.308 -1.6980  1.1441 -2.4043
  118SOL     OW  564   4.099   1.567   2.280  0.0541 -0.3167  0.1841
  118SOL    HW1  565   4.016   1.558   2.328 -0.1119 -0.8687 -0.1901
  118SOL    HW2  566   4.103   1.488   2.225  0.2861  0.2555 -0.6367
  119SOL     OW  567   2.814   1.095   0.856 -0.2201  0.3962 -0.2139
  119SOL    HW1  568   2.884   1.117   0.917 -1.0496  1.2597  0.4597
  119SOL    HW2  569   2.743   1.064   0.912 -0.2981 -0.7066 -0.9049
  120SOL     OW  570   3.376   1.241   4.271 -0.0477  0.1101 -0.0089
  120SOL    HW1  571   3.305   1.203   4.322 -0.3521 -0.7949 -1.0835
  120SOL    HW2  572   3.452   1.237   4.330 -0.6182  0.0449  0.7357
  121SOL     OW  573   0.568   3.803   1.727  0.0024 -0.0557  0.0390
  121SOL    HW1  574   0.596   3.796   1.635  1.2785 -0.7407  0.4481
  121SOL    HW2  575   0.574   3.896   1.747 -0.1473  0.0828 -0.5264
  122SOL     OW  576   2.962   2.063   0.017  0.1862 -0.8729 -0.5216
  122SOL    HW1  577   2.964   2.158   0.013 -0.9814 -0.7151  1.3892
  122SOL    HW2  578   3.050   2.039   0.047  0.1501 -0.2977  0.0714
  123SOL     OW  579   3.440   1.910   1.140  0.4840  0.0927 -0.0529
  123SOL    HW1  580   3.525   1.868   1.124 -0.2192 -2.0083  1.2967
  123SOL    HW2  581   3.376   1.845   1.111 -0.6991  1.4494 -0.5829
  124SOL     OW  582   0.619   1.154   1.204 -0.0669 -0.1803 -0.1355
  124SOL    HW1  583   0.628   1.073   1.155 -0.2632  0.0018 -0.4756
  124SOL    HW2  584   0.695   1.156   1.262 -0.0007 -0.5480 -0.2060
  125SOL     OW  585   0.959   4.145   1.379  0.0600 -0.3667  0.6347
  125SOL    HW1  586   0.863   4.154   1.381 -0.0572 -1.3144  0.1382
  125SOL    HW2  587   0.977   4.098   1.298  0.9631 -0.1095  0.6743
  126SOL     OW  588   4.293   0.140   3.870  0.1572  0.1191  0.4863
  126SOL    HW1  589   4.296   0.230   3.903  1.4560  0.7395 -1.1713
  126SOL    HW2  590   4.380   0.125   3.833 -0.3450 -1.4754 -0.1371
  127SOL     OW  591   1.631   2.380   3.328  0.2537  0.0020  0.1553
  127SOL    HW1  592   1.684   2.304   3.302  0.4064  0.0956  0.1953
  127SOL    HW2  593   1.591   2.353   3.411  0.2167 -0.0788  0.1112
  128SOL     OW  594   1.413   2.164   2.640  0.0962 -0.0279 -0.3112
  128SOL    HW1  595   1.410   2.258   2.623 -1.1790  0.0804  0.3770
  128SOL    HW2  596   1.506   2.142   2.634  0.6375  1.5895  1.0609
  129SOL     OW  597   2.842   1.872   3.760  0.2943 -0.7939  0.4092
  129SOL    HW1  598   2.793   1.955   3.756  1.9366  0.5254  3.6713
  129SOL    HW2  599   2.842   1.840   3.670 -0.3786  2.7995 -1.0603
  130SOL     OW  600   1.410   3.550   2.520 -0.0889 -0.2414  0.3273
  130SOL    HW1  601   1.383   3.639   2.543  2.2326  0.3241  1.1476
  130SOL    HW2  602   1.332   3.496   2.538 -1.4851  1.5687 -0.0234
  131SOL     OW  603   3.038   3.525   1.298  0.3762 -0.2037 -0.0706
  131SOL    HW1  604   2.978   3.578   1.351  0.3563 -0.0976 -0.1987
  131SOL    HW2  605   2.998   3.438   1.296  0.5759 -0.3084  0.4102
  132SOL     OW  606   1.703   2.273   2.482  0.2368 -0.3189 -0.2384
  132SOL    HW1  607   1.734   2.320   2.559 -0.7108 -0.6329  0.3609
  132SOL    HW2  608   1.704   2.181   2.508  0.8693 -0.5225 -0.9578
  133SOL     OW  609   4.155   3.096   1.880 -0.3303  0.7256 -0.2390
  133SOL    HW1  610   4.101   3.145   1.819 -0.3564  1.5608  0.4297
  133SOL    HW2  611   4.232   3.152   1.894  0.5076 -0.2417 -0.8322
  134SOL     OW  612   4.054   1.717   1.191  0.1413  0.3639  0.0091
  134SOL    HW1  613   4.144   1.683   1.190 -0.1529 -0.4256 -1.2883
  134SOL    HW2  614   4.001   1.647   1.154 -1.0728  0.7196  1.0036
  135SOL     OW  615   3.788   2.150   1.650  0.8863  0.8428 -0.0927
  135SOL    HW1  616   3.733   2.074   1.667  1.5332  0.5613  0.8388
  135SOL    HW2  617   3.877   2.115   1.643  0.8933  1.2055 -2.2898
  136SOL     OW  618   1.140   0.295   1.456  0.1082  0.7359 -0.0762
  136SOL    HW1  619   1.106   0.251   1.534  0.8685 -1.4800 -0.9446
  136SOL    HW2  620   1.223   0.334   1.485  0.7936 -0.7651  0.0561
  137SOL     OW  621   0.720   4.289   2.176  0.1846 -0.0092  0.1023
  137SOL    HW1  622   0.717   4.253   2.088 -2.1157 -1.2032  0.5793
  137SOL    HW2  623   0.697   4.381   2.165 -0.3593 -0.2132 -0.5376
  138SOL     OW  624   0.332   1.575   3.058 -0.4482  0.4802 -0.0023
  138SOL    HW1  625   0.261   1.631   3.028 -0.4444  0.3800 -0.1976
  138SOL    HW2  626   0.363   1.531   2.979 -1.1013 -0.5470  0.2895
  139SOL     OW  627   0.688   1.660   0.834 -0.1093 -0.6709  0.1192
  139SOL    HW1  628   0.774   1.621   0.816 -0.0684 -1.1696  1.3013
  139SOL    HW2  629   0.700   1.753   0.813  0.2412 -0.9956 -1.2471
  140SOL     OW  630   1.463   0.490   0.937 -0.0180  0.1021  0.1750
  140SOL    HW1  631   1.552   0.524   0.946 -0.0327  0.7132 -1.6233
  140SOL    HW2  632   1.448   0.441   1.018  0.8846  2.3236  1.7889
  141SOL     OW  633   1.473   3.750   1.154 -0.0799  0.0472  0.4575
  141SOL    HW1  634   1.467   3.706   1.069 -2.1575  2.0863 -0.5790
  141SOL    HW2  635   1.563   3.781   1.159  0.1175 -0.1968 -0.9867
  142SOL     OW  636   0.110   1.315   3.586 -0.4523 -0.2195  0.0980
  142SOL    HW1  637   0.187   1.276   3.628 -1.1533 -2.5188 -0.5703
  142SOL    HW2  638   0.056   1.345   3.658  0.2310 -0.2765  0.6444
  143SOL     OW  639   1.568   1.579   1.459  0.1033  0.0820 -0.5379
  143SOL    HW1  640   1.627   1.541   1.394 -0.7378  0.8475 -1.7948
  143SOL    HW2  641   1.587   1.673   1.456 -0.1146  0.1510  0.1613
  144SOL     OW  642   3.493   1.788   0.471  0.1959 -0.0679  0.0830
  144SOL    HW1  643   3.525   1.878   0.478 -0.3130  0.1010  0.2716
  144SOL    HW2  644   3.519   1.761   0.383  1.5256 -0.2015  0.4825
  145SOL     OW  645   0.664   3.118   0.146 -0.2200  0.0757 -0.4607
  145SOL    HW1  646   0.622   3.203   0.138 -1.0918 -0.4477 -1.8577
  145SOL    HW2  647   0.647   3.075   0.062  0.7000 -1.2467 -0.0009
  146SOL     OW  648   0.915   3.135   0.034  0.1941  0.3764 -0.1421
  146SOL    HW1  649   0.973   3.195   0.082  0.2687 -0.3177  0.6729
  146SOL    HW2  650   0.831   3.142   0.080  0.1611 -0.0268 -0.1415
  147SOL     OW  651   3.342   2.148   1.029  0.4958 -0.1321 -0.6771
  147SOL    HW1  652   3.351   2.065   1.075 -0.2964  0.3472  0.3987
  147SOL    HW2  653   3.280   2.130   0.958 -0.4811 -0.2366  0.1794
  148SOL     OW  654   1.884   1.143   2.408 -0.2082  0.1940 -0.0563
  148SOL    HW1  655   1.902   1.187   2.491  0.0969  0.3288 -0.1947
  148SOL    HW2  656   1.825   1.202   2.361  1.4637  1.2362 -0.9281
  149SOL     OW  657   1.274   0.907   0.034 -0.1319  0.1060  0.1914
  149SOL    HW1  658   1.259   0.980  -0.026  0.1148  0.0998  0.1196
  149SOL    HW2  659   1.206   0.915   0.100 -0.3827  0.1343 -0.0700
  150SOL     OW  660   3.522   1.084   2.000  0.3139  0.4507  0.7283
  150SOL    HW1  661   3.482   1.019   2.058 -0.4765  1.2712  1.1119
  150SOL    HW2  662   3.543   1.035   1.920 -1.0284 -0.1122  0.6933
  151SOL     OW  663   1.533   3.975   3.473  0.3243 -0.3853 -0.0970
  151SOL    HW1  664   1.617   4.018   3.456  0.1192 -0.2062 -0.6734
  151SOL    HW2  665   1.516   3.924   3.395  0.1036 -0.7707  0.1987
  152SOL     OW  666   0.144   2.810   1.818  0.1113  0.2630 -0.0163
  152SOL    HW1  667   0.128   2.869   1.891  0.0587  0.5073 -0.2245
  152SOL    HW2  668   0.224   2.843   1.778 -0.1224  0.4160 -0.3584
  153SOL     OW  669   2.875   3.276   4.053  0.6741 -0.8387  0.4406
  153SOL    HW1  670   2.856   3.240   3.967 -0.8282 -2.0481  1.2213
  153SOL    HW2  671   2.945   3.339   4.038  0.2272 -0.7707 -1.7058
  154SOL     OW  672   3.991   2.132   2.614  0.0817  0.1006 -0.4360
  154SOL    HW1  673   3.968   2.048   2.653 -0.4674  0.5779  0.3185
  154SOL    HW2  674   4.043   2.176   2.682  1.8855 -0.3064 -1.4895
  155SOL     OW  675   1.622   1.198   2.643 -0.1738  0.5011  0.7211
  155SOL    HW1  676   1.648   1.108   2.660 -0.1148  0.8159  2.5519
  155SOL    HW2  677   1.705   1.247   2.641 -0.2276  0.5732  0.0720
  156SOL     OW  678   4.079   2.607   2.924  0.7885 -0.3689 -0.0930
  156SOL    HW1  679   4.122   2.665   2.861  1.8834  0.3624  1.2811
  156SOL    HW2  680   4.136   2.607   3.000 -1.3723  0.1968  1.6383
  157SOL     OW  681   0.946   2.734   1.501 -0.0760  0.1225  0.4643
  157SOL    HW1  682   0.874   2.795   1.485 -1.3691 -1.1058  1.3504
  157SOL    HW2  683   1.012   2.787   1.545 -0.9790  0.9881  0.8310
  158SOL     OW  684   1.778   2.121   3.769  0.2364  0.2896  0.4854
  158SOL    HW1  685   1.842   2.091   3.705 -0.5571  0.4847 -0.4238
  158SOL    HW2  686   1.708   2.056   3.764  0.6269 -0.2846  1.9343
  159SOL     OW  687   1.856   4.256   0.029 -0.2201 -0.0019 -0.5042
  159SOL    HW1  688   1.815   4.328  -0.020  1.1623  0.6866 -0.6984
  159SOL    HW2  689   1.835   4.178  -0.022 -0.3015  0.4836 -1.2283
  160SOL     OW  690   3.632   0.301   1.236  0.2622  0.0934  0.2149
  160SOL    HW1  691   3.684   0.222   1.251  0.4157  0.0264 -0.6311
  160SOL    HW2  692   3.697   0.367   1.211 -0.1976 -0.5666 -3.1646
  161SOL     OW  693   1.318   2.516   0.432 -0.0497  0.2584 -0.5429
  161SOL    HW1  694   1.226   2.539   0.447 -0.2710 -0.8210 -0.1428
  161SOL    HW2  695   1.318   2.420   0.428  0.9697  0.2666 -1.1682
  162SOL     OW  696   3.325   1.458   2.691 -0.1169 -0.0455 -0.8744
  162SOL    HW1  697   3.247   1.414   2.658 -1.0380 -0.7001  1.8447
  162SOL    HW2  698   3.291   1.533   2.740  0.8071 -0.7445  0.9542
  163SOL     OW  699   1.419   0.320   2.112  0.1409  0.9771 -0.2392
  163SOL    HW1  700   1.398   0.397   2.166 -0.4502  0.8637 -0.2955
  163SOL    HW2  701   1.343   0.263   2.122  1.1106 -0.2065  0.8499
  164SOL     OW  702   3.507   3.429   0.940 -0.1344  0.1035 -0.1037
  164SOL    HW1  703   3.441   3.423   0.872 -0.3983  0.2514  0.1375
  164SOL    HW2  704   3.523   3.522   0.951  2.5972  0.0838 -2.5264
  165SOL     OW  705   3.386   4.130   0.333 -0.5379  0.1533  0.5219
  165SOL    HW1  706   3.328   4.091   0.397 -2.4666  2.4465  0.3142
  165SOL    HW2  707   3.433   4.198   0.381  0.3650 -0.2166  0.1888
  166SOL     OW  708   0.950   4.121   3.331 -0.1376  0.2827  0.6541
  166SOL    HW1  709   0.922   4.165   3.412  1.8355  0.6253  1.1948
  166SOL    HW2  710   1.018   4.060   3.359  0.7419  0.5618 -0.7743
  167SOL     OW  711   4.249   3.775   1.392  0.3024 -0.4373 -0.1187
  167SOL    HW1  712   4.314   3.713   1.359 -0.4153 -0.8766 -0.7418
  167SOL    HW2  713   4.187   3.721   1.441 -0.7824 -0.3604 -1.3570
  168SOL     OW  714   3.079   3.398   1.755 -0.3096  0.5689 -0.7395
  168SOL    HW1  715   3.030   3.336   1.810 -0.7586  1.6329  0.1144
  168SOL    HW2  716   3.080   3.357   1.668 -1.1695 -0.3217 -0.3616
  169SOL     OW  717   3.326   1.055   1.507  0.0142  0.3595 -0.3673
  169SOL    HW1  718   3.390   1.125   1.494 -0.4843  1.1460  1.1578
  169SOL    HW2  719   3.245   1.089   1.469 -0.0151  0.2517 -0.4015
  170SOL     OW  720   1.153   2.187   1.346  0.0056  0.6724 -0.3348
  170SOL    HW1  721   1.191   2.274   1.333 -0.2561  0.6467 -1.3334
  170SOL    HW2  722   1.182   2.161   1.434  0.2041  1.7023 -0.0862
  171SOL     OW  723   0.205   4.019   1.819 -0.4507 -0.5125  0.4224
  171SOL    HW1  724   0.176   4.017   1.728  1.6014  0.5682 -0.3203
  171SOL    HW2  725   0.199   3.928   1.848 -0.2637 -1.0366 -1.0922
  172SOL     OW  726   0.437   1.844   3.103  0.3767  0.3235  0.1495
  172SOL    HW1  727   0.457   1.883   3.188  0.8943  0.2214  0.0821
  172SOL    HW2  728   0.451   1.750   3.115  0.7628  0.3384 -0.1221
  173SOL     OW  729   1.714   2.724   0.542  0.5471 -0.5194 -0.5374
  173SOL    HW1  730   1.710   2.649   0.482  0.1851 -0.9529  0.0246
  173SOL    HW2  731   1.639   2.713   0.600  1.6833 -0.8721  0.9140
  174SOL     OW  732   0.048   1.211   1.055  0.2632 -0.5692  0.0150
  174SOL    HW1  733   0.046   1.246   1.144  1.7469  0.1554 -0.2102
  174SOL    HW2  734   0.140   1.219   1.028 -0.0354 -1.4020 -1.3411
  175SOL     OW  735   3.797   3.780   2.875  0.0790  0.4221  0.0633
  175SOL    HW1  736   3.814   3.864   2.832 -0.1890 -0.2119 -1.3640
  175SOL    HW2  737   3.848   3.717   2.823 -0.1633 -0.3656  0.7659
  176SOL     OW  738   2.106   0.466   2.611 -0.3706  0.9914 -0.2014
  176SOL    HW1  739   2.199   0.451   2.621 -0.7383 -1.0054  0.6018
  176SOL    HW2  740   2.065   0.383   2.635 -2.3047  1.4713 -1.6096
  177SOL     OW  741   2.544   3.068   2.004 -0.7480 -0.0237 -0.1981
  177SOL    HW1  742   2.450   3.054   2.003 -0.6343 -1.3566  1.9886
  177SOL    HW2  743   2.582   2.981   2.019  0.7474  0.6905  0.4440
  178SOL     OW  744   0.569   0.379   4.136  0.1852  0.8751 -0.5298
  178SOL    HW1  745   0.522   0.410   4.213 -2.0631  0.1324 -1.5245
  178SOL    HW2  746   0.661   0.401   4.153 -0.3319  1.3150  2.0383
  179SOL     OW  747   3.583   3.096   4.060  0.1215 -0.3397  0.5549
  179SOL    HW1  748   3.506   3.118   4.008 -0.1685 -0.7473  0.8090
  179SOL    HW2  749   3.648   3.068   3.995 -0.1544 -0.6013  0.3864
  180SOL     OW  750   3.380   3.314   3.081 -0.0831  0.2928 -0.0838
  180SOL    HW1  751   3.362   3.400   3.043  0.2779 -0.3995 -1.9466
  180SOL    HW2  752   3.297   3.267   3.074  0.2561 -0.1874 -1.0343
  181SOL     OW  753   1.437   0.170   1.453 -0.3808 -0.1404  0.0473
  181SOL    HW1  754   1.428   0.112   1.377  1.7945 -0.1223 -0.2895
  181SOL    HW2  755   1.479   0.115   1.520  0.1995  0.5947  0.2914
  182SOL     OW  756   0.289   3.658   0.408 -0.2663  0.1741  0.1198
  182SOL    HW1  757   0.287   3.577   0.356  0.8216  0.2190 -0.0229
  182SOL    HW2  758   0.198   3.672   0.435 -0.6516 -0.4972 -0.7776
  183SOL     OW  759   3.583   0.239   4.077  0.4210  0.2134 -0.7128
  183SOL    HW1  760   3.658   0.298   4.063  1.2660 -0.4672  0.7632
  183SOL    HW2  761   3.622   0.152   4.086 -0.5023 -0.1136  0.3585
  184SOL     OW  762   3.840   0.240   1.013  0.1053 -0.5576  0.2708
  184SOL    HW1  763   3.751   0.263   0.987  0.1756  1.1920  1.4282
  184SOL    HW2  764   3.866   0.172   0.951 -1.8861 -0.8458 -0.3192
  185SOL     OW  765   0.246   1.465   1.612  1.0197 -0.4434 -0.0207
  185SOL    HW1  766   0.240   1.537   1.549  0.6789  1.2921  1.9123
  185SOL    HW2  767   0.292   1.502   1.687  0.0757 -1.9849  1.3955
  186SOL     OW  768   1.908   0.737   0.610  0.1116  0.5444  0.0799
  186SOL    HW1  769   1.836   0.765   0.553  0.2259  1.2996  0.2980
  186SOL    HW2  770   1.955   0.672   0.557 -1.5479 -1.0792  0.4687
  187SOL     OW  771   0.838   1.178   2.446  0.0672  0.0871 -0.1457
  187SOL    HW1  772   0.752   1.212   2.469 -0.4636 -0.0652 -1.7808
  187SOL    HW2  773   0.826   1.083   2.440  0.7015 -0.0773  0.9944
  188SOL     OW  774   1.309   2.809   2.839  0.2146  0.0591  0.6298
  188SOL    HW1  775   1.274   2.885   2.884  1.2195  0.0767  1.4218
  188SOL    HW2  776   1.324   2.838   2.750 -0.1428  0.5525  0.7301
  189SOL     OW  777   3.484   0.739   1.237  0.1070 -0.0806  0.1182
  189SOL    HW1  778   3.391   0.737   1.215 -0.4312  0.9128  2.0536
  189SOL    HW2  779   3.522   0.665   1.190 -1.5476 -0.1856 -1.1295
  190SOL     OW  780   0.717   3.372   0.326 -0.6879 -0.7848 -0.1151
  190SOL    HW1  781   0.644   3.382   0.387 -1.0952  5.3848 -1.0061
  190SOL    HW2  782   0.683   3.399   0.241  2.2226  1.3125 -0.7863
  191SOL     OW  783   0.274   1.486   0.775  0.5119 -0.2743 -0.1528
  191SOL    HW1  784   0.339   1.497   0.845  1.5953  3.3376 -1.4593
  191SOL    HW2  785   0.191   1.513   0.815  0.5011 -1.3021  0.5460
  192SOL     OW  786   1.758   4.081   4.135 -0.2518  0.0780  0.4611
  192SOL    HW1  787   1.807   3.999   4.126  2.4490  1.6675 -0.7775
  192SOL    HW2  788   1.760   4.119   4.047 -0.5905  1.8919  1.1900
  193SOL     OW  789   1.797   1.647   3.445  0.7211 -0.0662  0.1368
  193SOL    HW1  790   1.836   1.600   3.371  1.4894  0.4079  0.2224
  193SOL    HW2  791   1.825   1.738   3.432  0.9543  0.0029  1.0553
  194SOL     OW  792   1.581   2.912   2.904  0.0713  0.2182 -0.1598
  194SOL    HW1  793   1.656   2.936   2.851  0.3068  1.6848  0.7913
  194SOL    HW2  794   1.564   2.820   2.881  0.6666  0.5611 -2.1026
  195SOL     OW  795   2.308   0.338   2.777  0.1776 -0.8938 -0.3530
  195SOL    HW1  796   2.264   0.263   2.816  0.0335 -0.4486  0.3504
  195SOL    HW2  797   2.392   0.303   2.746 -0.1929 -1.4973 -0.6857
  196SOL     OW  798   0.133   2.467   3.566 -0.4799 -0.1131 -0.6814
  196SOL    HW1  799   0.227   2.484   3.572 -0.5367 -0.2321  0.8460
  196SOL    HW2  800   0.096   2.550   3.536  0.1688 -0.3096 -2.1389
  197SOL     OW  801   1.244   3.482   3.076 -0.0705 -0.2332 -0.2940
  197SOL    HW1  802   1.233   3.415   3.008 -0.5497  1.3707 -1.8795
  197SOL    HW2  803   1.158   3.524   3.082  0.0059 -0.2614  1.2390
  198SOL     OW  804   0.839   0.604   2.561  0.1364 -0.4414  0.8465
  198SOL    HW1  805   0.844   0.519   2.605  1.0948 -0.7582  0.1567
  198SOL    HW2  806   0.877   0.588   2.474 -0.9301  0.3693  0.2032
  199SOL     OW  807   3.982   2.971   1.427  0.1330 -0.3816  0.4858
  199SOL    HW1  808   3.971   2.895   1.484  0.0521 -0.4556  0.3697
  199SOL    HW2  809   4.041   2.942   1.358 -1.6094 -1.0242 -0.8159
  200SOL     OW  810   2.171   1.223   3.375 -0.7035  0.0251  0.2779
  200SOL    HW1  811   2.105   1.232   3.444 -0.6251 -1.0472  0.4970
  200SOL    HW2  812   2.232   1.295   3.392 -1.6034  0.8103  0.2918
  201SOL     OW  813   3.675   3.102   3.493 -0.1935  0.3423  0.3141
  201SOL    HW1  814   3.652   3.017   3.455  0.2595  0.7061 -0.8158
  201SOL    HW2  815   3.770   3.099   3.501 -0.0904  1.0690 -0.5598
  202SOL     OW  816   3.810   3.533   2.106  0.0399  0.2160 -0.2752
  202SOL    HW1  817   3.809   3.622   2.072 -1.7327  0.6221  0.6949
  202SOL    HW2  818   3.752   3.536   2.182  1.3598 -1.3731  0.8509
  203SOL     OW  819   1.634   1.940   3.202 -0.6666 -0.4484 -0.7566
  203SOL    HW1  820   1.718   1.957   3.161  1.3019  0.2462  3.0558
  203SOL    HW2  821   1.609   1.853   3.171  2.0739 -1.1866 -1.1986
  204SOL     OW  822   2.441   0.888   1.473 -0.2190 -0.3139  0.0925
  204SOL    HW1  823   2.508   0.941   1.515 -0.4290 -1.1082  1.4979
  204SOL    HW2  824   2.440   0.918   1.382  0.8900  0.8308  0.4289
  205SOL     OW  825   0.429   0.920   0.218  0.2976 -0.1659 -0.2351
  205SOL    HW1  826   0.478   0.935   0.299  2.1385 -0.3423 -1.2612
  205SOL    HW2  827   0.384   1.002   0.202  2.1482  0.8677 -0.4539
  206SOL     OW  828   0.943   2.893   4.197 -0.3184 -0.2039  0.2220
  206SOL    HW1  829   0.930   2.984   4.224  0.3740 -0.1963  0.5533
  206SOL    HW2  830   0.967   2.899   4.105  3.7418  0.3251  1.1363
  207SOL     OW  831   0.003   1.042   1.352  0.0757 -0.1717  0.3434
  207SOL    HW1  832   0.071   1.004   1.408  1.7190  0.8135 -0.8756
  207SOL    HW2  833   0.029   1.133   1.342  0.1721 -0.4086 -2.3824
  208SOL     OW  834   3.556   3.104   2.478 -0.0784  0.2795 -0.1490
  208SOL    HW1  835   3.547   3.113   2.573  2.1906  0.8166  0.0560
  208SOL    HW2  836   3.624   3.038   2.467  0.4441  1.0085 -1.3850
  209SOL     OW  837   2.785   0.643   2.706  0.2964 -0.7208  0.8748
  209SOL    HW1  838   2.739   0.648   2.622  0.8263  2.5228  0.6427
  209SOL    HW2  839   2.854   0.578   2.691 -1.2198 -2.1398 -0.2986
  210SOL     OW  840   2.216   0.451   0.802 -0.4233  0.1037 -0.1453
  210SOL    HW1  841   2.234   0.365   0.765 -1.8047  0.5881 -2.0888
  210SOL    HW2  842   2.253   0.447   0.890 -1.9107 -3.0697  0.4767
  211SOL     OW  843   1.504   2.358   3.102  0.0471 -0.1785  0.2268
  211SOL    HW1  844   1.557   2.373   3.180 -0.0537 -0.3444  0.3292
  211SOL    HW2  845   1.467   2.443   3.081  0.3667 -0.0597  0.1465
  212SOL     OW  846   4.206   3.336   3.865  0.1313  0.2462 -0.7336
  212SOL    HW1  847   4.212   3.358   3.772  0.5268  1.1475 -0.5138
  212SOL    HW2  848   4.185   3.419   3.907  0.3813 -0.0663  0.0236
  213SOL     OW  849   0.427   0.816   3.354  0.3554 -0.7635  0.2341
  213SOL    HW1  850   0.396   0.751   3.416  1.3319 -1.1519  0.3276
  213SOL    HW2  851   0.394   0.786   3.269 -0.9261 -0.2648  0.5259
  214SOL     OW  852   0.231   2.899   0.030 -0.4060 -0.3709 -0.9288
  214SOL    HW1  853   0.192   2.817   0.059  1.6033 -0.8232  0.7601
  214SOL    HW2  854   0.323   2.877   0.012 -0.1695  1.2199 -1.8657
  215SOL     OW  855   1.948   0.241   1.701  0.1370 -0.2864 -0.1010
  215SOL    HW1  856   1.977   0.312   1.758  1.4291 -1.0461  0.2365
  215SOL    HW2  857   1.889   0.188   1.754  1.6560 -1.2269  0.7335
  216SOL     OW  858   3.824   2.162   0.488  0.4426  0.0159  0.0824
  216SOL    HW1  859   3.770   2.164   0.409  0.6704  1.2241 -0.0574
  216SOL    HW2  860   3.908   2.127   0.459  0.3272 -0.1265 -0.0829
  217SOL     OW  861   3.925   1.186   2.394 -0.2158  0.4651  0.1967
  217SOL    HW1  862   3.841   1.152   2.362 -0.6913 -0.5462  2.3419
  217SOL    HW2  863   3.978   1.108   2.411  0.3801  0.9967  0.8465
  218SOL     OW  864   1.365   2.425   1.404 -0.0931 -0.2087  0.5571
  218SOL    HW1  865   1.341   2.517   1.395  0.3280 -0.2165 -1.0968
  218SOL    HW2  866   1.317   2.395   1.481 -3.2375  0.4466 -0.9548
  219SOL     OW  867   1.761   4.185   3.912  0.0026  0.3213  0.4205
  219SOL    HW1  868   1.681   4.234   3.895 -0.4694 -0.2474  0.9628
  219SOL    HW2  869   1.832   4.243   3.883 -0.5602  1.1561  0.7036
  220SOL     OW  870   3.070   4.154   0.804 -0.2260  0.1894 -0.4894
  220SOL    HW1  871   3.139   4.220   0.799 -0.7220  0.7372 -0.2353
  220SOL    HW2  872   3.103   4.090   0.866 -0.5950  1.2487  0.8518
  221SOL     OW  873   3.793   2.803   0.583  0.2642 -0.4782  0.2884
  221SOL    HW1  874   3.739   2.859   0.527 -0.5599 -1.2690  0.2630
  221SOL    HW2  875   3.845   2.864   0.635  1.5000  0.2760 -1.7410
  222SOL     OW  876   3.853   1.743   0.713  0.7088 -0.6666 -0.1416
  222SOL    HW1  877   3.789   1.806   0.748 -0.2162 -1.7356  0.1784
  222SOL    HW2  878   3.917   1.733   0.783 -0.2789 -1.6080  0.6682
  223SOL     OW  879   1.484   4.267   3.938 -0.0114 -0.4954  0.4307
  223SOL    HW1  880   1.492   4.269   4.033 -0.0267  0.3050  0.4234
  223SOL    HW2  881   1.390   4.262   3.921  0.0289 -1.5291  0.4565
  224SOL     OW  882   1.824   3.174   3.717 -0.3924  0.0916 -0.6371
  224SOL    HW1  883   1.815   3.262   3.681 -2.1233 -0.8119 -2.7005
  224SOL    HW2  884   1.734   3.149   3.741  0.3022 -0.5380  1.5088
  225SOL     OW  885   0.141   2.247   3.430  0.2429 -0.0214 -0.0244
  225SOL    HW1  886   0.178   2.184   3.492  1.1057  0.4392 -0.0485
  225SOL    HW2  887   0.135   2.329   3.479 -1.6727 -0.2918  0.2691
  226SOL     OW  888   0.063   2.003   1.155  0.3201  0.0966 -0.0951
  226SOL    HW1  889   0.149   2.033   1.184  0.9601 -1.4388 -0.3103
  226SOL    HW2  890   0.028   2.076   1.103  1.6680  0.5753 -0.3660
  227SOL     OW  891   0.051   2.713   3.491  0.0445 -0.2170 -0.0007
  227SOL    HW1  892   0.106   2.763   3.430 -0.3294 -0.7996 -0.8387
  227SOL    HW2  893   0.018   2.779   3.552  1.1437  0.2485  0.1337
  228SOL     OW  894   3.911   0.177   2.414  0.2301 -0.8392 -0.3121
  228SOL    HW1  895   3.818   0.189   2.397  0.5826  0.9872 -1.2065
  228SOL    HW2  896   3.929   0.232   2.490  0.2921 -2.5043  0.9285
  229SOL     OW  897   0.451   3.608   4.030  0.3473  0.5851  0.3902
  229SOL    HW1  898   0.429   3.698   4.056  0.7898  0.6239  0.6477
  229SOL    HW2  899   0.367   3.566   4.015  0.1517  1.2997 -0.6061
  230SOL     OW  900   0.607   1.875   1.400 -0.0819  0.3397 -0.2070
  230SOL    HW1  901   0.643   1.899   1.486 -0.5581  1.6395 -0.3397
  230SOL    HW2  902   0.646   1.939   1.340  1.0801 -1.2138 -1.1647
  231SOL     OW  903   2.572   3.162   3.104 -0.1748 -0.2613 -0.1112
  231SOL    HW1  904   2.486   3.121   3.092  0.5929 -2.3210  1.0382
  231SOL    HW2  905   2.581   3.173   3.198  0.0024  1.9499 -0.3169
  232SOL     OW  906   0.543   2.579   2.444  0.1879  0.0897  0.4761
  232SOL    HW1  907   0.590   2.607   2.365  0.6615  0.8186  0.9980
  232SOL    HW2  908   0.605   2.594   2.515 -0.0332 -1.0766  0.9362
  233SOL     OW  909   0.719   2.565   2.232 -0.5590 -0.0528  0.1214
  233SOL    HW1  910   0.742   2.595   2.143 -1.5948 -0.7419 -0.3925
  233SOL    HW2  911   0.709   2.470   2.223 -0.0632 -0.2046  1.1218
  234SOL     OW  912   0.517   0.845   2.576 -0.9330 -0.0379 -0.0289
  234SOL    HW1  913   0.439   0.886   2.537 -1.6314  0.0449  1.3699
  234SOL    HW2  914   0.557   0.915   2.628 -2.3354 -1.0989  2.6718
  235SOL     OW  915   0.410   3.098   2.123 -0.1010 -0.1632  0.9804
  235SOL    HW1  916   0.436   3.058   2.206  0.5009 -0.2848  0.7363
  235SOL    HW2  917   0.469   3.059   2.058 -2.1005 -1.9316  0.0946
  236SOL     OW  918   0.425   1.236   1.584  0.7230 -0.2382 -0.0663
  236SOL    HW1  919   0.362   1.307   1.579  0.3748 -0.6087 -1.6195
  236SOL    HW2  920   0.510   1.278   1.568  0.4314 -0.2380 -1.8712
  237SOL     OW  921   1.556   0.861   0.891 -0.6364  0.7825  0.2145
  237SOL    HW1  922   1.618   0.791   0.908  0.9831  2.0897 -0.1119
  237SOL    HW2  923   1.516   0.838   0.807 -1.8070 -0.8642  1.1613
  238SOL     OW  924   3.757   4.271   3.366  0.1310  0.4015 -0.3956
  238SOL    HW1  925   3.739   4.345   3.424  0.9536 -1.9507  3.2172
  238SOL    HW2  926   3.852   4.258   3.374 -0.2065 -1.9617  0.4706
  239SOL     OW  927   2.255   0.185   0.708 -0.1634 -0.2652 -0.0446
  239SOL    HW1  928   2.341   0.187   0.667  0.6269  0.4353  1.5651
  239SOL    HW2  929   2.217   0.101   0.681  1.6860 -1.3328  0.4933
  240SOL     OW  930   2.179   0.779   2.317 -1.0366  0.3620  0.5019
  240SOL    HW1  931   2.128   0.712   2.362  0.2636  0.7960  2.7493
  240SOL    HW2  932   2.121   0.855   2.314 -1.7098 -0.1508 -0.0852
  241SOL     OW  933   3.678   2.163   0.261 -0.4065  0.4879  0.0671
  241SOL    HW1  934   3.587   2.136   0.259  0.4122 -2.6739 -0.6561
  241SOL    HW2  935   3.703   2.169   0.168  0.1374  1.4300  0.2538
  242SOL     OW  936   4.076   1.966   2.189  0.8361 -0.1515  0.1439
  242SOL    HW1  937   4.055   2.019   2.113 -0.1483 -1.8694 -0.8488
  242SOL    HW2  938   4.065   1.876   2.159  3.1322 -0.9790  1.5530
  243SOL     OW  939   3.318   3.721   0.669 -0.3556  0.0649 -0.3697
  243SOL    HW1  940   3.239   3.774   0.673 -0.2202  0.2776 -0.4852
  243SOL    HW2  941   3.287   3.631   0.674 -0.5328  0.1683  0.6327
  244SOL     OW  942   2.953   4.033   3.040 -0.2176 -0.1844 -0.5999
  244SOL    HW1  943   2.886   4.041   3.108  0.1319  2.4581 -0.4408
  244SOL    HW2  944   3.028   3.995   3.085 -0.6141 -0.2584  0.0140
  245SOL     OW  945   1.277   3.901   2.221 -0.7285  0.2170 -1.1474
  245SOL    HW1  946   1.369   3.886   2.245 -0.4577 -0.0555 -2.2620
  245SOL    HW2  947   1.282   3.932   2.130 -1.6164  2.2188 -0.5609
  246SOL     OW  948   1.208   1.307   3.320  0.2794 -0.9553 -0.3042
  246SOL    HW1  949   1.227   1.383   3.266 -0.8445 -0.1209  0.4387
  246SOL    HW2  950   1.279   1.305   3.384  0.4431 -0.6879 -0.4739
  247SOL     OW  951   4.008   2.296   3.411 -0.6988  0.1128  0.4742
  247SOL    HW1  952   4.081   2.262   3.358 -1.2816  0.8657 -0.8795
  247SOL    HW2  953   4.024   2.390   3.415 -1.6071  0.2918  0.1262
  248SOL     OW  954   1.730   0.637   2.469  0.1882 -0.3558 -0.1188
  248SOL    HW1  955   1.689   0.616   2.553  0.9199  2.7191  1.1720
  248SOL    HW2  956   1.818   0.668   2.493  0.1782  1.2319 -1.9168
  249SOL     OW  957   2.895   3.502   2.802  0.5064  0.2259  0.5998
  249SOL    HW1  958   2.940   3.522   2.884  1.0589  0.6588  0.1975
  249SOL    HW2  959   2.814   3.458   2.829  1.9561 -2.2364  1.2969
  250SOL     OW  960   1.001   0.966   3.978 -0.0469  0.1475  0.0462
  250SOL    HW1  961   1.060   1.036   4.005 -0.9567  1.2347 -0.6937
  250SOL    HW2  962   0.915   0.994   4.009 -0.6033 -0.0964 -1.2381
  251SOL     OW  963   3.614   2.205   0.966 -0.1133 -0.3332 -0.1558
  251SOL    HW1  964   3.579   2.243   0.886 -1.8471  1.6953  1.4581
  251SOL    HW2  965   3.540   2.157   1.004 -0.2021  1.0651  1.5621
  252SOL     OW  966   3.010   2.643   3.463  0.0457  0.4334  0.0021
  252SOL    HW1  967   3.056   2.706   3.520 -1.9843  0.7046  1.4490
  252SOL    HW2  968   3.066   2.565   3.464  1.0203  1.1127  0.7980
  253SOL     OW  969   1.945   2.799   2.901  0.1482  0.1999  0.2872
  253SOL    HW1  970   1.911   2.857   2.832  1.2126 -0.1436 -0.5579
  253SOL    HW2  971   1.870   2.785   2.959 -1.0563 -0.2468 -1.3049
  254SOL     OW  972   2.282   2.570   1.169 -0.1320 -0.5026  0.0312
  254SOL    HW1  973   2.318   2.583   1.257  0.0632  1.5409 -0.2964
  254SOL    HW2  974   2.340   2.620   1.112 -0.7708 -1.0761 -1.1485
  255SOL     OW  975   1.643   0.545   2.695 -0.1574 -0.6562  0.0607
  255SOL    HW1  976   1.704   0.539   2.769  0.6984 -0.1704 -0.5759
  255SOL    HW2  977   1.622   0.455   2.673  0.9945 -0.8779 -0.2161
  256SOL     OW  978   3.782   2.423   1.878  0.1847 -0.3881 -0.1722
  256SOL    HW1  979   3.767   2.507   1.835 -0.0286 -0.6798 -0.6748
  256SOL    HW2  980   3.774   2.358   1.808  1.6263 -0.7309 -0.0494
  257SOL     OW  981   2.906   2.942   1.602 -0.4545 -0.1780 -0.1763
  257SOL    HW1  982   2.818   2.918   1.631 -0.7571  1.5354  0.4405
  257SOL    HW2  983   2.920   2.890   1.523 -1.9272 -0.6532 -0.1625
  258SOL     OW  984   1.211   2.030   3.670  0.2245 -0.3784  0.5191
  258SOL    HW1  985   1.233   1.975   3.745  0.4488 -1.5368 -0.3741
  258SOL    HW2  986   1.157   1.975   3.614 -0.2457  0.5903 -0.0123
  259SOL     OW  987   3.025   2.444   1.614 -0.3071 -0.3108 -0.6535
  259SOL    HW1  988   3.032   2.417   1.706 -2.3249  3.4331  0.7927
  259SOL    HW2  989   3.111   2.482   1.594 -0.7747  1.7073  0.8505
  260SOL     OW  990   4.068   0.444   4.095 -0.4387  0.6572  0.3551
  260SOL    HW1  991   4.112   0.426   4.011  0.8924  0.9422  0.9706
  260SOL    HW2  992   4.094   0.533   4.117  0.3133  0.1228  1.7125
  261SOL     OW  993   1.295   3.299   1.321 -0.2803  0.3157 -0.1765
  261SOL    HW1  994   1.386   3.328   1.330 -0.1667  0.0470 -0.4666
  261SOL    HW2  995   1.265   3.291   1.412  0.6876 -1.7810  0.0209
  262SOL     OW  996   3.997   3.907   0.998 -0.1385  0.0350  0.0872
  262SOL    HW1  997   3.982   3.906   1.093 -0.6833  0.4711  0.0082
  262SOL    HW2  998   4.017   3.999   0.978  2.0557 -0.3743  0.0819
  263SOL     OW  999   3.741   0.679   4.070 -0.7049  0.2014 -0.3849
  263SOL    HW1 1000   3.830   0.690   4.038 -0.2609 -0.8561  0.4349
  263SOL    HW2 1001   3.729   0.752   4.131 -0.1974  0.0235 -0.0657
  264SOL     OW 1002   0.047   2.831   1.101 -0.0864  0.0750 -0.0310
  264SOL    HW1 1003   0.083   2.915   1.074  1.4643 -0.6353 -0.2726
  264SOL    HW2 1004   0.057   2.774   1.025 -0.5090 -0.5128  0.3404
  265SOL     OW 1005   3.192   1.157   0.135  0.1995  0.8025 -0.3780
  265SOL    HW1 1006   3.205   1.064   0.116  1.5311  0.5650  1.4391
  265SOL    HW2 1007   3.097   1.167   0.139  0.0282 -0.5422 -0.3644
  266SOL     OW 1008   0.163   0.913   3.817  0.4410 -0.4195  0.1568
  266SOL    HW1 1009   0.102   0.847   3.786 -0.2996 -0.6564  2.0396
  266SOL    HW2 1010   0.216   0.869   3.883  1.7485  0.1599 -0.4632
  267SOL     OW 1011   2.631   1.755   3.491  0.7544 -0.0477  0.5206
  267SOL    HW1 1012   2.602   1.834   3.536 -0.3891  1.1288 -2.1163
  267SOL    HW2 1013   2.573   1.686   3.524 -1.9049  1.3230 -1.0558
  268SOL     OW 1014   4.294   0.562   2.514  0.0856  0.5306  0.0282
  268SOL    HW1 1015   4.358   0.606   2.570 -1.7225  0.8681  1.9394
  268SOL    HW2 1016   4.318   0.470   2.519  0.6370  0.6841  0.4286
  269SOL     OW 1017   2.344   3.059   3.166  0.1656  0.2138 -0.1616
  269SOL    HW1 1018   2.389   3.037   3.248  0.0240  1.9482  0.4311
  269SOL    HW2 1019   2.272   2.997   3.161  2.2644 -2.3495 -0.8961
  270SOL     OW 1020   0.921   3.174   1.748  0.0519  0.0317  0.6649
  270SOL    HW1 1021   0.966   3.167   1.664 -0.0109 -1.2152  0.7213
  270SOL    HW2 1022   0.901   3.268   1.757  1.3782  0.3951 -0.0085
  271SOL     OW 1023   2.130   3.460   2.599  0.4733 -0.6322 -0.7318
  271SOL    HW1 1024   2.131   3.482   2.692 -1.0015 -1.2861 -0.5283
  271SOL    HW2 1025   2.217   3.484   2.568  1.1891 -0.8878  0.9296
  272SOL     OW 1026   4.074   0.228   4.298  0.3614  0.1670  0.3384
  272SOL    HW1 1027   4.068   0.284   4.221  0.2763  0.1771  0.3526
  272SOL    HW2 1028   3.993   0.177   4.298  0.3086  0.2509  0.4871
  273SOL     OW 1029   0.782   2.574   3.559 -0.0706  0.2057  0.4540
  273SOL    HW1 1030   0.707   2.566   3.618 -0.0117 -0.9520  0.4010
  273SOL    HW2 1031   0.853   2.528   3.604  0.2535  0.1952 -0.0561
  274SOL     OW 1032   2.268   2.506   3.106 -0.3718  0.2592  0.2049
  274SOL    HW1 1033   2.244   2.413   3.106  0.6413 -0.0106  0.3923
  274SOL    HW2 1034   2.227   2.541   3.027  1.7084 -1.0122 -1.5302
  275SOL     OW 1035   2.440   0.244   1.141 -0.1973  0.3797  0.0051
  275SOL    HW1 1036   2.495   0.227   1.064 -2.8791 -1.3788 -1.6635
  275SOL    HW2 1037   2.440   0.162   1.189 -1.1678  0.4112  0.0780
  276SOL     OW 1038   3.435   2.047   0.235 -0.4133 -0.3974 -0.4142
  276SOL    HW1 1039   3.340   2.042   0.225 -0.4000 -2.2436 -0.0261
  276SOL    HW2 1040   3.465   1.956   0.226  1.2973  0.1241 -0.3461
  277SOL     OW 1041   1.156   3.852   2.982  0.3863  0.8361 -0.5010
  277SOL    HW1 1042   1.155   3.778   2.921 -0.1264  0.4314 -0.0174
  277SOL    HW2 1043   1.248   3.875   2.991  0.6076 -0.0787 -0.2753
  278SOL     OW 1044   3.292   0.323   2.390 -0.4844  0.2773  0.1728
  278SOL    HW1 1045   3.331   0.320   2.303 -1.6261  0.9259 -0.3940
  278SOL    HW2 1046   3.235   0.246   2.393  0.0858 -0.1362  0.6284
  279SOL     OW 1047   2.382   0.154   3.458  0.6416 -0.1423 -0.6149
  279SOL    HW1 1048   2.448   0.219   3.481 -1.4669  1.9790 -0.1703
  279SOL    HW2 1049   2.312   0.204   3.416 -0.5921 -2.3077 -1.3119
  280SOL     OW 1050   0.993   0.449   3.895  0.0935  0.0691  0.5712
  280SOL    HW1 1051   0.903   0.426   3.869  0.1872  0.0522  0.2582
  280SOL    HW2 1052   1.018   0.382   3.958 -0.6824  0.9504  1.8699
  281SOL     OW 1053   0.429   2.283   2.272 -0.2090  0.0325  0.0484
  281SOL    HW1 1054   0.395   2.363   2.233  2.2416  0.9456 -0.4104
  281SOL    HW2 1055   0.522   2.301   2.288  0.5027 -2.7804 -0.2733
  282SOL     OW 1056   1.247   1.587   2.728  0.0513  0.2652 -0.1886
  282SOL    HW1 1057   1.223   1.540   2.648 -0.8842 -0.7845  0.6762
  282SOL    HW2 1058   1.288   1.520   2.783  2.0957  1.3131 -0.3500
  283SOL     OW 1059   3.931   3.266   2.470  0.2763 -0.1832  0.4100
  283SOL    HW1 1060   4.007   3.317   2.498  1.0853 -1.2443  0.1714
  283SOL    HW2 1061   3.967   3.192   2.423 -0.9417 -0.2915 -0.4072
  284SOL     OW 1062   3.223   2.471   3.491 -0.4880 -0.2542 -0.3026
  284SOL    HW1 1063   3.234   2.438   3.402  0.5170 -0.2161 -0.2006
  284SOL    HW2 1064   3.176   2.401   3.537  1.1564 -1.3397 -0.2236
  285SOL     OW 1065   2.932   3.661   3.289 -0.1726 -0.7017  0.0234
  285SOL    HW1 1066   3.004   3.598   3.288 -0.1958 -0.7333 -0.9821
  285SOL    HW2 1067   2.858   3.615   3.250 -0.0583  0.0727 -1.1742
  286SOL     OW 1068   0.171   1.329   2.873  0.2625  0.4188 -0.1315
  286SOL    HW1 1069   0.161   1.393   2.803 -1.7138  0.7386  0.3699
  286SOL    HW2 1070   0.092   1.340   2.927  0.5492 -1.4756  0.7599
  287SOL     OW 1071   0.478   2.811   3.582  0.6711  0.2042  0.0130
  287SOL    HW1 1072   0.497   2.853   3.497 -1.7425  1.6494  0.0703
  287SOL    HW2 1073   0.445   2.724   3.559 -2.3243  1.4363 -0.8532
  288SOL     OW 1074   0.053   0.729   0.748  0.7433 -0.1318 -0.1087
  288SOL    HW1 1075  -0.008   0.657   0.767  1.2108 -0.4349  0.2897
  288SOL    HW2 1076  -0.001   0.795   0.705  0.1952 -0.5129 -0.0309
  289SOL     OW 1077   0.457   3.578   1.316  0.5038 -0.5169  0.3195
  289SOL    HW1 1078   0.543   3.553   1.282 -0.4568  0.3553 -3.1511
  289SOL    HW2 1079   0.406   3.497   1.315  0.4358 -0.4717 -0.6055
  290SOL     OW 1080   4.210   1.655   3.744 -0.1774 -0.2023  0.1810
  290SOL    HW1 1081   4.142   1.609   3.794 -0.4075  0.2775  0.3134
  290SOL    HW2 1082   4.292   1.627   3.785 -0.3176 -0.4743  0.2784
  291SOL     OW 1083   0.160   0.660   0.508 -0.2478 -0.3831  0.0561
  291SOL    HW1 1084   0.126   0.692   0.592  1.8912 -0.6442  1.0959
  291SOL    HW2 1085   0.142   0.566   0.509  1.7269 -0.8145  1.3224
  292SOL     OW 1086   3.610   2.674   0.891  0.0280 -0.1956 -0.2274
  292SOL    HW1 1087   3.613   2.758   0.846  2.8889  0.4249  0.9231
  292SOL    HW2 1088   3.516   2.656   0.902 -0.6657  2.5865 -0.9185
  293SOL     OW 1089   4.117   2.565   3.454  0.1681  0.3229 -0.2232
  293SOL    HW1 1090   4.190   2.621   3.479  0.9947 -0.5410 -0.6752
  293SOL    HW2 1091   4.054   2.574   3.526  1.2075  0.1941  0.7162
  294SOL     OW 1092   2.187   3.911   1.811  0.0215  0.3177  0.1774
  294SOL    HW1 1093   2.177   3.815   1.812 -1.5100  0.4502  0.7055
  294SOL    HW2 1094   2.260   3.927   1.752  0.6796 -1.2164  0.5313
  295SOL     OW 1095   1.127   2.357   2.777  0.2804  0.2905 -0.2754
  295SOL    HW1 1096   1.041   2.383   2.746 -0.2514  1.3738  1.9207
  295SOL    HW2 1097   1.154   2.428   2.835  1.7718 -0.9834  0.6647
  296SOL     OW 1098   4.268   1.025   2.895 -0.5418 -0.1996  0.4274
  296SOL    HW1 1099   4.219   1.091   2.945 -0.7834  0.4258 -0.5927
  296SOL    HW2 1100   4.340   1.073   2.855 -1.5306 -0.1869 -1.5012
  297SOL     OW 1101   2.804   0.355   2.657 -0.1319  0.6603  0.2642
  297SOL    HW1 1102   2.722   0.307   2.666 -0.5475  1.4656  0.8472
  297SOL    HW2 1103   2.821   0.392   2.743  0.1642  1.5749 -0.1699
  298SOL     OW 1104   2.977   3.802   2.537 -0.1174 -0.1844 -0.1818
  298SOL    HW1 1105   3.012   3.849   2.613 -1.8330 -0.2443  0.6917
  298SOL    HW2 1106   3.052   3.752   2.504  0.7232 -0.0120  1.3549
  299SOL     OW 1107   2.196   0.040   0.323 -0.2544  0.4852 -0.3628
  299SOL    HW1 1108   2.144   0.118   0.344 -0.0950  1.1707 -2.3337
  299SOL    HW2 1109   2.161   0.010   0.239  0.2553 -1.0856 -0.0444
  300SOL     OW 1110   2.134   2.185   3.664 -0.0783 -0.6097  1.0689
  300SOL    HW1 1111   2.096   2.273   3.662  0.5585 -0.3440 -0.2395
  300SOL    HW2 1112   2.068   2.129   3.624 -0.0534 -0.5483  0.9425
  301SOL     OW 1113   3.547   0.659   0.839 -0.1143  0.2099 -0.2311
  301SOL    HW1 1114   3.639   0.668   0.815 -0.4604 -0.5483 -2.0292
  301SOL    HW2 1115   3.506   0.739   0.805 -0.3312 -0.0865 -0.6798
  302SOL     OW 1116   1.684   3.779   2.531  0.1711 -0.1054  0.2402
  302SOL    HW1 1117   1.625   3.818   2.595  1.3915  1.0479  0.7311
  302SOL    HW2 1118   1.742   3.723   2.583 -0.5225 -1.3080 -0.2479
  303SOL     OW 1119   2.950   1.262   1.918  0.7196 -0.1156  0.1835
  303SOL    HW1 1120   2.952   1.270   1.823 -1.1871  0.2325  0.1355
  303SOL    HW2 1121   2.864   1.225   1.938  0.0776  2.0149  1.8811
  304SOL     OW 1122   2.885   2.546   4.161 -0.6727  0.1095  0.0631
  304SOL    HW1 1123   2.844   2.489   4.096  0.6142 -0.1058 -0.5940
  304SOL    HW2 1124   2.964   2.500   4.188 -0.5783  0.7367  0.9249
  305SOL     OW 1125   0.034   0.601   2.081  0.2283  0.2267 -0.5115
  305SOL    HW1 1126   0.105   0.621   2.019  1.3403 -0.1394  0.6055
  305SOL    HW2 1127  -0.009   0.524   2.043 -2.0423  2.6021 -3.1519
  306SOL     OW 1128   2.521   1.768   4.255 -0.4346 -0.0353  0.0354
  306SOL    HW1 1129   2.602   1.782   4.207 -0.1521 -2.8388 -0.4269
  306SOL    HW2 1130   2.456   1.748   4.188 -1.0241  0.0912  0.5573
  307SOL     OW 1131   3.175   0.103   0.682  0.0029 -0.0974 -0.1799
  307SOL    HW1 1132   3.242   0.065   0.626  0.9043  0.3814  0.5379
  307SOL    HW2 1133   3.150   0.185   0.638 -0.9758 -0.8235 -1.0380
  308SOL     OW 1134   1.364   3.944   1.508  0.4005 -0.7897  0.4269
  308SOL    HW1 1135   1.314   3.915   1.431 -1.0461 -1.3711  1.5363
  308SOL    HW2 1136   1.342   4.037   1.517  3.8166  0.4768 -2.2085
  309SOL     OW 1137   1.119   1.777   2.884 -0.3413  0.2382  0.2493
  309SOL    HW1 1138   1.150   1.711   2.822 -1.9126  0.4945 -0.8761
  309SOL    HW2 1139   1.197   1.828   2.905  0.2340  0.2943 -1.7513
  310SOL     OW 1140   3.603   1.949   0.782  0.2917 -0.3690  0.3709
  310SOL    HW1 1141   3.672   2.015   0.788  1.3670 -1.1077 -2.4077
  310SOL    HW2 1142   3.567   1.958   0.694 -2.2314 -0.9750  1.2393
  311SOL     OW 1143   1.611   1.572   2.435 -0.3789  0.1242 -0.1343
  311SOL    HW1 1144   1.704   1.593   2.443 -0.3969  0.4965 -0.7946
  311SOL    HW2 1145   1.579   1.569   2.525  0.1007  0.7855  0.0651
  312SOL     OW 1146   1.713   2.085   0.915 -0.2760 -0.3040 -0.1387
  312SOL    HW1 1147   1.659   2.085   0.836 -1.5645 -0.5774  0.7049
  312SOL    HW2 1148   1.741   1.994   0.924  0.2179 -0.1898 -0.5018
  313SOL     OW 1149   0.668   0.097   0.558  0.0778  0.0880 -0.0252
  313SOL    HW1 1150   0.694   0.005   0.559  0.3772  0.0930 -2.1819
  313SOL    HW2 1151   0.736   0.142   0.609 -0.0532 -0.8471  1.0205
  314SOL     OW 1152   2.570   1.083   2.819 -0.2304 -0.2556  0.0997
  314SOL    HW1 1153   2.607   1.103   2.905 -0.1430  0.1693 -0.0327
  314SOL    HW2 1154   2.622   1.009   2.787 -0.9176 -1.0775  0.8342
  315SOL     OW 1155   3.073   3.718   0.350  0.0242  0.6319  0.3096
  315SOL    HW1 1156   3.046   3.805   0.379  1.1392  0.9917  0.3394
  315SOL    HW2 1157   3.051   3.661   0.424 -2.0577  0.6110 -0.2859
  316SOL     OW 1158   2.558   0.204   2.704  0.3999  0.1682 -0.4004
  316SOL    HW1 1159   2.501   0.172   2.634 -0.2180 -0.8326  0.5279
  316SOL    HW2 1160   2.558   0.134   2.769  0.2919  1.4006  0.9778
  317SOL     OW 1161   1.056   2.004   2.113  0.0027 -0.0325 -0.0321
  317SOL    HW1 1162   1.054   1.985   2.207 -1.6272  0.3969  0.0527
  317SOL    HW2 1163   1.010   1.931   2.073 -0.3713  0.3799 -0.3666
  318SOL     OW 1164   2.943   0.620   2.256  0.3308 -0.1599 -0.0124
  318SOL    HW1 1165   2.852   0.632   2.230  0.3799 -0.1952 -0.2039
  318SOL    HW2 1166   2.992   0.620   2.174  0.7126  1.6583  0.1675
  319SOL     OW 1167   1.540   1.097   3.076  0.0914  0.0086 -0.0162
  319SOL    HW1 1168   1.486   1.023   3.049 -1.3206  0.2626  1.8915
  319SOL    HW2 1169   1.607   1.059   3.132  0.3162  0.0148 -0.2750
  320SOL     OW 1170   4.212   4.132   0.369  0.0828  0.1954  0.0057
  320SOL    HW1 1171   4.164   4.174   0.440  0.6942 -0.3810  0.7696
  320SOL    HW2 1172   4.164   4.157   0.290 -1.8720 -0.8612  0.7782
  321SOL     OW 1173   1.675   0.328   0.527 -0.7162  0.1498 -0.1120
  321SOL    HW1 1174   1.657   0.243   0.566 -1.1429  0.8015  1.1721
  321SOL    HW2 1175   1.769   0.327   0.508 -0.3214  0.1012  1.7106
  322SOL     OW 1176   2.556   0.914   2.116 -0.4968  0.5823  0.0498
  322SOL    HW1 1177   2.479   0.964   2.092 -2.2344 -1.9905 -0.1020
  322SOL    HW2 1178   2.536   0.877   2.202  0.2136 -0.7063 -0.2970
  323SOL     OW 1179   0.216   2.235   1.429  0.1145 -0.5812  0.4879
  323SOL    HW1 1180   0.129   2.272   1.414  1.0346  1.0562 -1.2480
  323SOL    HW2 1181   0.244   2.272   1.513 -0.0881  0.4808  0.1001
  324SOL     OW 1182   3.157   3.065   0.632 -0.8628  0.6552  0.1798
  324SOL    HW1 1183   3.234   3.123   0.633 -0.0956 -0.3316  0.2665
  324SOL    HW2 1184   3.094   3.110   0.577  0.7879  0.2520 -2.2155
  325SOL     OW 1185   2.112   3.196   4.161 -0.0178 -0.4100  0.1474
  325SOL    HW1 1186   2.121   3.194   4.256 -1.0061 -1.6495  0.2366
  325SOL    HW2 1187   2.126   3.106   4.133 -0.2777 -0.1626 -0.8287
  326SOL     OW 1188   4.111   1.632   3.191  0.8092  1.0946 -0.1787
  326SOL    HW1 1189   4.021   1.629   3.223  0.5069  2.6308 -0.7970
  326SOL    HW2 1190   4.164   1.607   3.266 -0.1673 -1.4837 -0.2296
  327SOL     OW 1191   1.846   0.152   3.681 -0.2542 -0.2724  0.1273
  327SOL    HW1 1192   1.867   0.157   3.774  1.4322  0.3493 -0.2478
  327SOL    HW2 1193   1.916   0.099   3.643  0.4551  1.4234 -1.1093
  328SOL     OW 1194   0.899   0.198   2.334  0.6676 -0.1038 -0.1372
  328SOL    HW1 1195   0.830   0.220   2.272 -0.3111  1.0868  1.2989
  328SOL    HW2 1196   0.876   0.111   2.365 -0.4311  0.4023  0.5640
  329SOL     OW 1197   0.536   2.704   1.859 -0.2094 -0.3377  0.0122
  329SOL    HW1 1198   0.473   2.742   1.799  1.1050  0.0753 -1.1396
  329SOL    HW2 1199   0.545   2.613   1.830 -0.4317 -0.4657  0.3297
  330SOL     OW 1200   2.290   0.337   3.139  0.0535  0.5830 -0.5180
  330SOL    HW1 1201   2.264   0.268   3.079 -0.0064  2.4747 -2.7858
  330SOL    HW2 1202   2.386   0.339   3.134  0.1369 -0.0822  0.4782
  331SOL     OW 1203   3.270   0.951   1.777 -0.5670 -0.2697  0.0792
  331SOL    HW1 1204   3.272   1.046   1.772 -0.0627 -0.3179 -1.0043
  331SOL    HW2 1205   3.330   0.922   1.707 -0.5238 -1.3709  0.5474
  332SOL     OW 1206   3.677   1.509   1.176  0.1201 -0.1570  0.3921
  332SOL    HW1 1207   3.768   1.492   1.200 -0.6162 -2.7776  1.7375
  332SOL    HW2 1208   3.672   1.486   1.083  1.3637  2.7432 -0.4852
  333SOL     OW 1209   0.051   1.631   0.900 -0.0783  0.0485 -0.4958
  333SOL    HW1 1210   0.123   1.619   0.963 -0.8769 -0.7888  0.2861
  333SOL    HW2 1211   0.038   1.726   0.897 -0.3243  0.0969  0.9931
  334SOL     OW 1212   4.109   3.034   3.844 -0.1503 -0.4951  0.5142
  334SOL    HW1 1213   4.143   3.011   3.758  0.0515 -0.9427  0.7134
  334SOL    HW2 1214   4.117   3.129   3.849  0.5781 -0.5492  0.3560
  335SOL     OW 1215   3.926   0.592   3.154  0.1676 -0.1902  0.2813
  335SOL    HW1 1216   3.942   0.573   3.247  2.2683  0.6932  0.1474
  335SOL    HW2 1217   4.013   0.611   3.118 -0.6922  0.1790 -1.7176
  336SOL     OW 1218   1.444   3.394   0.141  0.1069 -0.2116 -0.1222
  336SOL    HW1 1219   1.489   3.457   0.084  1.4783 -1.1845 -0.1700
  336SOL    HW2 1220   1.430   3.442   0.223  2.0072 -0.0779  0.1833
  337SOL     OW 1221   2.027   1.315   3.149  0.2219 -0.1700 -0.0378
  337SOL    HW1 1222   1.942   1.293   3.110  0.1198  0.2656 -0.0658
  337SOL    HW2 1223   2.034   1.259   3.226 -0.5006  0.4325  0.4810
  338SOL     OW 1224   4.296   1.819   0.263  0.4560  0.3943 -0.0248
  338SOL    HW1 1225   4.341   1.751   0.213 -0.3819  1.0069 -1.7095
  338SOL    HW2 1226   4.354   1.838   0.336  1.2968 -1.2175 -0.2327
  339SOL     OW 1227   2.263   0.958   0.633 -0.0790  0.2520  0.3065
  339SOL    HW1 1228   2.258   0.864   0.651 -1.7420  0.4720  1.2749
  339SOL    HW2 1229   2.350   0.983   0.663 -0.1406 -0.7375  1.4272
  340SOL     OW 1230   0.279   1.595   1.069 -0.3427 -0.1833 -0.3034
  340SOL    HW1 1231   0.366   1.566   1.041 -0.4668  0.0816 -0.9902
  340SOL    HW2 1232   0.283   1.594   1.164  0.4350 -0.1204 -0.3278
  341SOL     OW 1233   1.857   0.723   0.118  0.2604 -0.1512 -0.1971
  341SOL    HW1 1234   1.846   0.631   0.093  1.4754 -0.6143  0.8379
  341SOL    HW2 1235   1.889   0.766   0.039 -0.4862 -0.5757 -0.7400
  342SOL     OW 1236   1.891   2.881   3.973 -0.5179 -0.2105 -0.7169
  342SOL    HW1 1237   1.802   2.894   3.939 -0.5352  0.4301 -0.4282
  342SOL    HW2 1238   1.945   2.943   3.924 -0.4471  0.3261  0.0320
  343SOL     OW 1239   0.735   2.186   3.292  0.2576  0.0607  0.3386
  343SOL    HW1 1240   0.728   2.181   3.196 -0.5549  1.1402  0.3207
  343SOL    HW2 1241   0.669   2.125   3.324  0.3333 -0.0921  0.2053
  344SOL     OW 1242   0.899   0.177   0.233  0.0714  0.1818  0.1175
  344SOL    HW1 1243   0.956   0.238   0.186 -0.5146  0.7154  0.0820
  344SOL    HW2 1244   0.955   0.103   0.254  0.1759 -0.4281 -2.0848
  345SOL     OW 1245   3.110   1.903   3.849  0.5570 -0.1034  0.3875
  345SOL    HW1 1246   3.015   1.901   3.840  0.5299  0.7286  0.3976
  345SOL    HW2 1247   3.138   1.816   3.822  0.1410  0.8636 -3.9756
  346SOL     OW 1248   0.506   0.402   1.529  0.1082  0.1182 -0.0577
  346SOL    HW1 1249   0.592   0.434   1.557  1.5714 -3.2294 -0.2137
  346SOL    HW2 1250   0.462   0.377   1.610  0.1200 -0.0181 -0.0924
  347SOL     OW 1251   0.693   1.679   2.714  0.0765  0.4751  0.1262
  347SOL    HW1 1252   0.744   1.754   2.682 -0.7204  0.1924 -2.0120
  347SOL    HW2 1253   0.619   1.673   2.652 -1.1414 -0.6711  1.6238
  348SOL     OW 1254   2.632   4.216   0.737 -0.0085  0.3494  0.1002
  348SOL    HW1 1255   2.716   4.238   0.777 -0.5399  1.0305  0.8753
  348SOL    HW2 1256   2.654   4.183   0.650  1.1244 -0.4443  0.6709
  349SOL     OW 1257   3.787   0.792   0.771 -0.0509  0.3257 -0.1228
  349SOL    HW1 1258   3.733   0.865   0.743  0.8336  0.1275 -2.5441
  349SOL    HW2 1259   3.858   0.831   0.821 -0.8149  0.8437  0.5956
  350SOL     OW 1260   3.213   1.103   2.873  0.0486 -0.3916 -0.2386
  350SOL    HW1 1261   3.236   1.179   2.926 -0.3143 -0.3424 -0.1509
  350SOL    HW2 1262   3.294   1.079   2.829  0.5279 -0.8574  0.8630
  351SOL     OW 1263   1.288   3.613   1.434  0.3137  0.3263 -0.5903
  351SOL    HW1 1264   1.293   3.544   1.501  0.7089  0.8712 -0.0562
  351SOL    HW2 1265   1.378   3.641   1.422  0.4130 -0.5552 -2.2037
  352SOL     OW 1266   3.677   3.426   1.667 -0.4004  0.3298  0.0877
  352SOL    HW1 1267   3.635   3.350   1.707 -3.0460  1.6138 -0.0515
  352SOL    HW2 1268   3.650   3.500   1.722  1.2481  1.3355 -0.3833
  353SOL     OW 1269   2.662   3.000   0.571 -0.1733  0.3655 -0.0318
  353SOL    HW1 1270   2.745   3.034   0.603 -0.2246  0.6128 -0.1630
  353SOL    HW2 1271   2.612   3.077   0.544 -0.9789  0.3505  1.2983
  354SOL     OW 1272   1.276   1.982   0.219  0.0442 -0.2756 -0.1368
  354SOL    HW1 1273   1.335   1.941   0.281 -0.2265  0.6309  0.7537
  354SOL    HW2 1274   1.203   1.920   0.209  1.2664 -1.5707 -1.5352
  355SOL     OW 1275   0.156   0.236   0.290  0.0350  0.4238 -0.1573
  355SOL    HW1 1276   0.104   0.294   0.234  0.5051  0.2308 -0.8073
  355SOL    HW2 1277   0.225   0.202   0.232  1.4206  1.3534  0.8682
  356SOL     OW 1278   1.665   1.120   0.936 -0.4733 -0.0452  0.1565
  356SOL    HW1 1279   1.600   1.176   0.894 -0.7060 -0.7508 -0.4462
  356SOL    HW2 1280   1.625   1.032   0.935  0.4249 -0.4603 -0.0899
  357SOL     OW 1281   2.279   2.083   3.895  0.2630 -0.0152  0.3327
  357SOL    HW1 1282   2.222   2.132   3.834 -1.8677 -1.4700  1.0292
  357SOL    HW2 1283   2.236   2.094   3.980  0.7697 -1.5543  0.8041
  358SOL     OW 1284   3.702   2.925   2.841 -0.9112  0.1972  0.3117
  358SOL    HW1 1285   3.741   2.963   2.762  0.2041  1.0568  1.2302
  358SOL    HW2 1286   3.649   2.995   2.878  0.8566  0.8281  1.8166
  359SOL     OW 1287   1.533   0.812   1.490  0.7731  0.3838 -0.3209
  359SOL    HW1 1288   1.598   0.769   1.436 -0.4327  0.2140 -1.6851
  359SOL    HW2 1289   1.473   0.853   1.428 -0.7489  0.0486  0.8636
  360SOL     OW 1290   0.962   2.270   2.085  0.0248 -0.3606 -0.6632
  360SOL    HW1 1291   0.998   2.182   2.078 -0.4779 -0.4769 -2.3275
  360SOL    HW2 1292   0.928   2.289   1.997 -1.3654  0.8443  0.0906
  361SOL     OW 1293   0.094   3.167   3.163 -0.2744 -0.0063 -0.3833
  361SOL    HW1 1294   0.034   3.230   3.124 -1.5154 -2.3711 -2.5649
  361SOL    HW2 1295   0.162   3.155   3.097 -1.2506 -2.4814 -1.0435
  362SOL     OW 1296   3.735   2.330   2.385  0.2144  0.3856  0.6645
  362SOL    HW1 1297   3.764   2.358   2.472  3.6806  0.8368 -0.4996
  362SOL    HW2 1298   3.806   2.275   2.352 -0.4024  1.2149 -2.3404
  363SOL     OW 1299   3.635   1.943   1.377 -0.3276 -0.6653 -0.2265
  363SOL    HW1 1300   3.713   1.999   1.384 -1.7726  1.7701 -1.8869
  363SOL    HW2 1301   3.630   1.922   1.284 -1.6410 -0.7830 -0.1437
  364SOL     OW 1302   1.850   2.855   3.432 -0.2053 -0.0603  0.0853
  364SOL    HW1 1303   1.763   2.832   3.465 -0.5050  2.3643  1.2895
  364SOL    HW2 1304   1.893   2.896   3.507  2.0429 -1.2626 -0.4643
  365SOL     OW 1305   3.423   1.503   2.288 -0.1067  0.1314  0.2710
  365SOL    HW1 1306   3.502   1.543   2.252 -0.4489  1.3528  0.8297
  365SOL    HW2 1307   3.389   1.568   2.349 -1.2380 -0.6130  0.4593
  366SOL     OW 1308   3.498   1.308   3.646  0.1963 -0.3722 -0.6800
  366SOL    HW1 1309   3.472   1.224   3.685  1.2075 -1.2583 -1.8119
  366SOL    HW2 1310   3.424   1.332   3.590  0.1719 -0.8892 -0.8842
  367SOL     OW 1311   3.966   2.436   1.477 -0.0262  0.1441 -0.0141
  367SOL    HW1 1312   3.962   2.400   1.389  0.8540  0.2370 -0.0925
  367SOL    HW2 1313   4.045   2.489   1.478 -1.2828  2.1445  0.0657
  368SOL     OW 1314   1.028   2.563   0.315  0.4058 -0.0528 -1.2056
  368SOL    HW1 1315   0.986   2.483   0.349  1.4283  0.9774  3.1635
  368SOL    HW2 1316   0.955   2.621   0.295 -0.4373 -0.1678  1.1717
  369SOL     OW 1317   2.972   1.413   0.826 -0.2882  0.0329 -0.6696
  369SOL    HW1 1318   3.044   1.371   0.872 -0.0749 -0.5063 -1.4756
  369SOL    HW2 1319   2.947   1.351   0.758 -1.7986  0.0120 -0.1438
  370SOL     OW 1320   0.367   0.296   1.215 -0.6563  0.2851 -0.2741
  370SOL    HW1 1321   0.352   0.262   1.127 -0.6336 -0.2727 -0.0665
  370SOL    HW2 1322   0.427   0.370   1.202 -0.5111  0.0981 -0.7075
  371SOL     OW 1323   0.365   4.250   1.830  0.1884 -0.6915 -0.1368
  371SOL    HW1 1324   0.340   4.258   1.738  1.5709 -0.8261 -0.5385
  371SOL    HW2 1325   0.310   4.179   1.863  0.2166 -1.1522 -1.0489
  372SOL     OW 1326   0.617   0.198   2.589 -0.8434  0.5067  0.0584
  372SOL    HW1 1327   0.684   0.151   2.640 -0.6002  1.2770  0.4756
  372SOL    HW2 1328   0.543   0.138   2.585  0.4324 -1.0518 -1.8435
  373SOL     OW 1329   0.379   2.856   1.684  0.2505  0.3771 -0.0683
  373SOL    HW1 1330   0.458   2.902   1.656  0.1725  0.9613  0.6333
  373SOL    HW2 1331   0.344   2.818   1.603  1.2535  0.0854 -0.3848
  374SOL     OW 1332   4.223   1.438   1.711  0.0397  0.3588  0.2616
  374SOL    HW1 1333   4.304   1.403   1.747 -0.5959 -0.5372  0.8509
  374SOL    HW2 1334   4.189   1.497   1.779  0.1217  0.6343  0.0684
  375SOL     OW 1335   0.637   1.295   0.455 -0.7869 -0.3205 -1.1239
  375SOL    HW1 1336   0.569   1.264   0.394 -0.2942 -2.3772 -0.7138
  375SOL    HW2 1337   0.623   1.242   0.534  0.9014 -0.3384 -0.8138
  376SOL     OW 1338   1.993   1.744   4.138  0.5806  0.3509  0.1438
  376SOL    HW1 1339   1.990   1.675   4.205  0.3036 -1.3721 -1.5811
  376SOL    HW2 1340   2.073   1.727   4.090  0.6494  1.4299 -0.1490
  377SOL     OW 1341   3.003   3.076   2.244  0.7333  0.7036  0.0005
  377SOL    HW1 1342   3.065   3.010   2.276  0.5499  1.1749  1.3862
  377SOL    HW2 1343   2.922   3.028   2.228  0.1168  0.7668  2.4743
  378SOL     OW 1344   1.397   2.120   3.498 -0.4326  0.4404 -0.4399
  378SOL    HW1 1345   1.351   2.086   3.575  0.2245  0.4950 -0.0148
  378SOL    HW2 1346   1.342   2.191   3.466  0.2435  1.7636  1.1710
  379SOL     OW 1347   1.184   1.960   2.368  0.1490 -0.0161 -0.0924
  379SOL    HW1 1348   1.136   1.879   2.384  1.9789 -1.0568  0.4703
  379SOL    HW2 1349   1.157   2.018   2.439  0.9654 -1.2092  1.2639
  380SOL     OW 1350   0.194   3.270   3.941 -0.0702  0.0251 -0.1186
  380SOL    HW1 1351   0.231   3.252   3.855  0.0178 -0.5146  0.0304
  380SOL    HW2 1352   0.129   3.201   3.955 -0.2400  0.2370  0.1547
  381SOL     OW 1353   2.257   1.914   3.198  0.3988 -0.2012  0.4960
  381SOL    HW1 1354   2.166   1.902   3.223  0.4488 -0.0893  0.7382
  381SOL    HW2 1355   2.302   1.837   3.231  0.3083 -0.4984 -0.0634
  382SOL     OW 1356   4.242   2.202   0.975  0.4493 -0.3875 -0.2062
  382SOL    HW1 1357   4.153   2.230   0.997  0.6671 -0.6148  1.0597
  382SOL    HW2 1358   4.285   2.281   0.943 -0.2555 -0.3198 -1.0517
  383SOL     OW 1359   3.801   1.017   4.157  0.0130 -0.9060  0.0353
  383SOL    HW1 1360   3.791   1.023   4.062  1.4032  1.8905 -0.0621
  383SOL    HW2 1361   3.893   0.992   4.170 -0.3524 -1.9632  0.6766
  384SOL     OW 1362   3.058   3.486   3.024 -0.2086 -0.1623  0.1211
  384SOL    HW1 1363   3.084   3.397   3.047  0.9689 -0.0872 -0.8753
  384SOL    HW2 1364   3.126   3.541   3.062 -0.2805  0.2227 -0.3068
  385SOL     OW 1365   1.661   1.912   0.640 -0.0541  0.4059  0.2658
  385SOL    HW1 1366   1.698   1.922   0.552 -0.5461 -2.2426 -0.3134
  385SOL    HW2 1367   1.570   1.941   0.632 -0.5662 -1.3141 -0.5564
  386SOL     OW 1368   3.849   1.129   3.015 -0.6303 -0.8597 -0.3225
  386SOL    HW1 1369   3.844   1.207   3.071 -2.2093 -0.6902 -0.6498
  386SOL    HW2 1370   3.837   1.055   3.074  0.2592 -0.8424 -0.1004
  387SOL     OW 1371   4.231   4.099   2.665 -0.3166  1.0750 -0.0280
  387SOL    HW1 1372   4.154   4.155   2.656  0.7863  2.6264 -0.2378
  387SOL    HW2 1373   4.305   4.159   2.658  0.9224 -0.3632  0.2281
  388SOL     OW 1374   1.678   3.570   2.153 -0.1831  0.4590 -0.4591
  388SOL    HW1 1375   1.716   3.543   2.070  1.2414 -0.6711  0.5033
  388SOL    HW2 1376   1.753   3.592   2.208 -1.1336  2.4846  0.1435
  389SOL     OW 1377   0.608   1.081   2.745 -0.1823 -0.1227  0.1563
  389SOL    HW1 1378   0.624   1.158   2.799 -4.3114  0.2792  1.1257
  389SOL    HW2 1379   0.609   1.113   2.655 -1.0629  0.9485  0.5116
  390SOL     OW 1380   3.237   0.504   2.083 -0.5420  0.6589 -0.2711
  390SOL    HW1 1381   3.319   0.455   2.083 -0.6460  0.4824 -0.4482
  390SOL    HW2 1382   3.260   0.589   2.044 -0.3335  0.8028  0.1583
  391SOL     OW 1383   3.615   0.222   2.413  0.2019 -0.1384  0.0704
  391SOL    HW1 1384   3.580   0.138   2.384  0.5282 -0.8972  1.7534
  391SOL    HW2 1385   3.569   0.240   2.496 -0.0128  1.4529 -0.3560
  392SOL     OW 1386   0.439   2.293   2.564  0.2233 -0.5553 -0.3324
  392SOL    HW1 1387   0.433   2.384   2.593 -0.0918 -0.5879 -0.2919
  392SOL    HW2 1388   0.430   2.298   2.468  2.4617 -0.3303 -0.5780
  393SOL     OW 1389   0.953   1.242   2.027 -0.9386  0.3072 -0.0604
  393SOL    HW1 1390   1.037   1.232   2.071 -1.5432  0.9554  1.2940
  393SOL    HW2 1391   0.913   1.319   2.067 -2.2755 -0.1045 -0.5232
  394SOL     OW 1392   0.259   1.954   2.933 -0.1447  0.5144 -0.4698
  394SOL    HW1 1393   0.326   1.901   2.977 -1.3399  0.2996  1.1654
  394SOL    HW2 1394   0.308   2.020   2.884  1.2597  1.0407  1.5454
  395SOL     OW 1395   1.152   3.937   3.397 -0.0713  0.2776  0.2132
  395SOL    HW1 1396   1.150   3.848   3.362 -1.1473  0.6496 -0.7474
  395SOL    HW2 1397   1.237   3.972   3.371 -0.6817  0.4029 -1.7477
  396SOL     OW 1398   2.263   2.924   0.161  0.0534  0.2372  0.3527
  396SOL    HW1 1399   2.198   2.854   0.152 -0.2678  0.7139 -1.5996
  396SOL    HW2 1400   2.336   2.896   0.106 -0.0951  1.4231 -0.4880
  397SOL     OW 1401   2.156   2.088   4.170  0.0979  0.2937 -0.4770
  397SOL    HW1 1402   2.137   2.180   4.154  0.2542  0.4468  0.1872
  397SOL    HW2 1403   2.206   2.087   4.251  0.4760 -0.3443 -0.7085
  398SOL     OW 1404   2.625   3.245   1.536 -0.2534  0.2474 -0.2373
  398SOL    HW1 1405   2.633   3.216   1.627  0.3542  0.0221 -0.3618
  398SOL    HW2 1406   2.670   3.330   1.534 -1.6290  1.0150  0.0225
  399SOL     OW 1407   2.787   3.950   3.261 -0.6801 -0.5753  0.0656
  399SOL    HW1 1408   2.819   3.861   3.271 -1.1445 -0.6384  1.0358
  399SOL    HW2 1409   2.753   3.974   3.347 -3.5948 -0.6519 -0.9641
  400SOL     OW 1410   0.083   0.607   1.667 -0.1103 -0.0747 -0.0148
  400SOL    HW1 1411   0.142   0.575   1.598 -1.2435 -1.5922 -0.3482
  400SOL    HW2 1412   0.137   0.608   1.746  0.3994 -1.4654 -0.2981
  401SOL     OW 1413   1.121   4.183   2.114 -0.0599 -0.0054  0.6088
  401SOL    HW1 1414   1.040   4.140   2.138 -1.0702  1.3927 -0.1486
  401SOL    HW2 1415   1.178   4.112   2.083 -0.2781 -1.2498  2.8157
  402SOL     OW 1416   0.534   4.194   2.380 -0.2215  0.1321  0.4912
  402SOL    HW1 1417   0.606   4.207   2.317 -1.2409  2.6209 -0.3037
  402SOL    HW2 1418   0.461   4.242   2.342 -2.4936 -2.6272  1.0942
  403SOL     OW 1419   1.536   0.717   3.544 -0.1306  0.7826 -0.2590
  403SOL    HW1 1420   1.504   0.654   3.609  0.0791  1.7518  0.8179
  403SOL    HW2 1421   1.585   0.664   3.481  0.4208 -0.0780  0.8681
  404SOL     OW 1422   2.586   3.431   3.000  0.3409  0.2211 -0.2582
  404SOL    HW1 1423   2.668   3.456   3.042 -0.0154  0.9172  0.0486
  404SOL    HW2 1424   2.570   3.342   3.029  0.7643  0.2411  0.0393
  405SOL     OW 1425   0.754   0.663   3.992  0.2295 -0.1592 -0.6938
  405SOL    HW1 1426   0.727   0.612   3.914 -0.9545 -0.9323  0.1809
  405SOL    HW2 1427   0.793   0.598   4.050  2.1507  0.6043 -1.0551
  406SOL     OW 1428   1.105   3.887   0.898  0.5522  0.0493 -0.3036
  406SOL    HW1 1429   1.192   3.870   0.862  1.2422  0.7917  0.9350
  406SOL    HW2 1430   1.046   3.830   0.848  1.7285 -0.4099 -1.2065
  407SOL     OW 1431   1.627   3.591   4.046  0.0435  0.2455 -0.5980
  407SOL    HW1 1432   1.537   3.565   4.027  0.2452  0.0512 -1.3207
  407SOL    HW2 1433   1.646   3.661   3.984 -0.3364  1.8698  1.0300
  408SOL     OW 1434   2.544   3.624   1.100 -0.1104 -0.1416  0.4484
  408SOL    HW1 1435   2.484   3.575   1.156 -1.7106  1.6332  0.4025
  408SOL    HW2 1436   2.547   3.711   1.139  1.0782  0.3038 -0.5743
  409SOL     OW 1437   0.366   1.083   3.169 -0.0882 -0.1806 -0.0215
  409SOL    HW1 1438   0.455   1.109   3.192  0.4994 -1.5097 -0.6769
  409SOL    HW2 1439   0.374   1.041   3.084 -0.9667 -2.3430  0.8899
  410SOL     OW 1440   3.539   1.346   0.412  0.2204  0.0029  0.2415
  410SOL    HW1 1441   3.598   1.417   0.437  0.3237  0.2378 -0.6198
  410SOL    HW2 1442   3.596   1.279   0.375  0.0185 -0.0806  0.0794
  411SOL     OW 1443   1.940   0.287   0.809 -0.5543 -0.4419  0.1270
  411SOL    HW1 1444   1.939   0.224   0.881  0.4282  0.9394  1.3953
  411SOL    HW2 1445   1.952   0.372   0.851 -0.5604  0.4737 -1.6309
  412SOL     OW 1446   3.999   0.916   3.415  0.1099 -0.2055  0.3378
  412SOL    HW1 1447   4.084   0.957   3.397  1.0790 -1.4094  1.8919
  412SOL    HW2 1448   4.022   0.831   3.453 -1.7608  0.2063  2.5896
  413SOL     OW 1449   3.173   4.117   3.535 -0.3759 -0.3352 -0.1181
  413SOL    HW1 1450   3.122   4.165   3.469 -0.8062 -0.7477 -0.0875
  413SOL    HW2 1451   3.216   4.047   3.485  1.6966  1.1209 -0.4997
  414SOL     OW 1452   1.149   2.121   2.601  0.1005 -0.1623 -0.2132
  414SOL    HW1 1453   1.103   2.199   2.629 -0.2518 -0.6118  0.4997
  414SOL    HW2 1454   1.242   2.140   2.618  0.1172  0.4749 -0.9927
  415SOL     OW 1455   2.735   2.534   3.561 -0.0873 -0.1696  0.6041
  415SOL    HW1 1456   2.732   2.625   3.591 -1.6943  0.4313 -1.1578
  415SOL    HW2 1457   2.819   2.525   3.517 -1.1789  1.5625 -2.1208
  416SOL     OW 1458   2.314   4.181   2.846  0.3950 -0.1222  0.1254
  416SOL    HW1 1459   2.395   4.153   2.890  0.1376 -2.5952 -0.8341
  416SOL    HW2 1460   2.338   4.185   2.754  0.2863  2.6706  0.1266
  417SOL     OW 1461   0.901   0.932   1.982 -0.4023  0.5972  0.6994
  417SOL    HW1 1462   0.936   1.020   1.992 -0.1749  0.8328 -1.7015
  417SOL    HW2 1463   0.874   0.926   1.891 -1.8513 -1.3253  1.1737
  418SOL     OW 1464   2.788   1.821   2.915  0.1436  0.0397  0.3287
  418SOL    HW1 1465   2.823   1.907   2.890  0.9869 -0.1519  0.8008
  418SOL    HW2 1466   2.779   1.774   2.832 -0.5595  0.6628  0.0422
  419SOL     OW 1467   1.395   1.096   0.660 -0.2028 -0.6287 -0.0989
  419SOL    HW1 1468   1.353   1.087   0.574 -1.7191 -0.2516  0.5667
  419SOL    HW2 1469   1.448   1.017   0.669 -0.0773 -0.7158 -1.3421
  420SOL     OW 1470   1.224   0.503   0.560  0.8729  0.0064  0.0379
  420SOL    HW1 1471   1.280   0.436   0.521  0.3520 -0.1973 -0.3695
  420SOL    HW2 1472   1.244   0.500   0.654  1.6021 -0.0028 -0.1190
  421SOL     OW 1473   1.188   3.256   2.958 -0.2915 -0.1337 -0.5550
  421SOL    HW1 1474   1.150   3.169   2.973  1.0945 -0.5697  0.5929
  421SOL    HW2 1475   1.262   3.240   2.900 -0.7310  0.4580 -1.2904
  422SOL     OW 1476   3.492   2.094   4.056  0.5502 -0.1669  0.4018
  422SOL    HW1 1477   3.429   2.034   4.095 -0.4725  0.8337  0.3413
  422SOL    HW2 1478   3.473   2.092   3.962 -0.2467  1.0401  0.5051
  423SOL     OW 1479   1.682   0.424   3.896 -0.6531  1.3058  0.3589
  423SOL    HW1 1480   1.650   0.437   3.985 -0.7559  0.9409  0.3746
  423SOL    HW2 1481   1.645   0.341   3.869  1.4916  0.0894  0.9251
  424SOL     OW 1482   3.232   1.742   1.422 -0.5883 -0.1416  0.5205
  424SOL    HW1 1483   3.320   1.703   1.421 -0.7739 -0.6681  1.9471
  424SOL    HW2 1484   3.220   1.769   1.513 -1.2849  1.3930 -0.0116
  425SOL     OW 1485   1.101   0.666   4.045  0.1513  0.3283  0.0985
  425SOL    HW1 1486   1.040   0.736   4.020  0.7184  0.5144 -0.8074
  425SOL    HW2 1487   1.070   0.589   3.997 -1.5600 -0.5735  2.4666
  426SOL     OW 1488   0.415   1.431   1.269  0.0591 -0.1183  0.0630
  426SOL    HW1 1489   0.447   1.367   1.333  0.2533  0.7514  0.8462
  426SOL    HW2 1490   0.486   1.495   1.262 -0.8358  0.9435  0.5807
  427SOL     OW 1491   2.754   2.857   3.157  0.4753  0.0472  0.5585
  427SOL    HW1 1492   2.682   2.814   3.203  2.5036 -2.9608  1.2055
  427SOL    HW2 1493   2.711   2.919   3.097 -2.4987 -0.3251  2.1276
  428SOL     OW 1494   0.257   0.004   3.946 -0.1631 -0.2244  0.1129
  428SOL    HW1 1495   0.343  -0.013   3.984 -1.0778 -1.8817  1.5705
  428SOL    HW2 1496   0.273   0.010   3.852  1.5417 -0.4490  0.3657
  429SOL     OW 1497   1.478   1.380   2.771 -0.0173 -0.0793  0.2924
  429SOL    HW1 1498   1.551   1.439   2.755  0.0250 -0.0709  0.5118
  429SOL    HW2 1499   1.499   1.301   2.721 -1.5078  1.1548 -2.5578
  430SOL     OW 1500   2.292   2.941   3.879  0.0651  0.5278 -0.1509
  430SOL    HW1 1501   2.269   3.034   3.873  0.5736  0.9257  2.8800
  430SOL    HW2 1502   2.371   2.939   3.932 -0.2399 -1.6937  0.2910
  431SOL     OW 1503   2.633   1.503   0.861  0.6129 -0.1520 -0.4914
  431SOL    HW1 1504   2.601   1.489   0.950 -1.1866  0.9458 -0.9136
  431SOL    HW2 1505   2.727   1.518   0.872  0.7180 -1.6364  1.0249
  432SOL     OW 1506   3.972   1.699   3.992 -0.0045 -0.6343  0.4177
  432SOL    HW1 1507   3.914   1.721   3.919  1.1528  1.4252  0.0531
  432SOL    HW2 1508   3.956   1.605   4.007 -0.8527 -0.9493 -1.9618
  433SOL     OW 1509   1.782   0.971   2.598  0.1170  0.1633 -0.5792
  433SOL    HW1 1510   1.813   0.882   2.584  1.3680  0.3898  0.4997
  433SOL    HW2 1511   1.809   1.019   2.520  0.6372 -0.1271 -0.5829
  434SOL     OW 1512   0.308   1.700   1.446  0.1093  0.1218  0.2475
  434SOL    HW1 1513   0.310   1.779   1.500  1.9721 -0.1051  0.5854
  434SOL    HW2 1514   0.400   1.684   1.424 -0.2557 -1.7838 -0.0522
  435SOL     OW 1515   1.178   4.288   2.406 -0.2863  0.1478 -0.4768
  435SOL    HW1 1516   1.140   4.320   2.324 -0.6354 -0.9984 -0.7751
  435SOL    HW2 1517   1.141   4.201   2.417 -2.0211  1.0700  2.0627
  436SOL     OW 1518   3.418   3.007   0.253 -0.1542 -0.4032 -0.1085
  436SOL    HW1 1519   3.378   3.093   0.241  0.9094  0.4261  1.8579
  436SOL    HW2 1520   3.484   3.002   0.184 -2.4308 -1.1543 -2.4027
  437SOL     OW 1521   1.901   0.222   1.114  0.2470 -0.5978 -0.0867
  437SOL    HW1 1522   1.896   0.129   1.094  1.5312 -0.4765 -1.1731
  437SOL    HW2 1523   1.980   0.231   1.168  0.4448 -0.0725 -0.4533
  438SOL     OW 1524   4.028   0.896   0.076 -0.0879 -0.2365  0.1067
  438SOL    HW1 1525   4.100   0.857   0.127 -0.1812  0.6946  0.9883
  438SOL    HW2 1526   3.998   0.969   0.130  0.1388  1.1190 -1.5376
  439SOL     OW 1527   0.264   0.546   2.285  0.2404 -0.5279 -0.2361
  439SOL    HW1 1528   0.241   0.559   2.377 -1.9963 -0.6795 -0.7016
  439SOL    HW2 1529   0.179   0.533   2.242  1.2145 -0.0752 -2.3825
  440SOL     OW 1530   1.708   1.257   0.319 -0.4072  0.3960 -0.2225
  440SOL    HW1 1531   1.675   1.341   0.352  0.2565  0.4256  0.3972
  440SOL    HW2 1532   1.800   1.255   0.346  0.0649  0.2333 -1.7525
  441SOL     OW 1533   2.736   1.670   2.664 -0.1332  0.7199 -0.2835
  441SOL    HW1 1534   2.696   1.725   2.597 -0.9658 -0.5868 -0.9068
  441SOL    HW2 1535   2.663   1.621   2.701  0.8104 -1.6100 -1.3194
  442SOL     OW 1536   1.038   1.336   2.305 -0.3343 -0.0678 -0.8220
  442SOL    HW1 1537   0.972   1.397   2.273 -1.0442 -0.4241 -0.0843
  442SOL    HW2 1538   0.988   1.262   2.338  0.2655  0.5143  1.6221
  443SOL     OW 1539   0.581   3.371   0.068 -0.3551  0.5762  0.2171
  443SOL    HW1 1540   0.625   3.440   0.018  1.1791 -0.6176 -0.1718
  443SOL    HW2 1541   0.499   3.355   0.021 -0.4070  1.6348 -0.0792
  444SOL     OW 1542   3.522   1.966   2.832  0.5525 -0.3987  0.4707
  444SOL    HW1 1543   3.464   1.986   2.906 -0.7942  0.5123 -0.7851
  444SOL    HW2 1544   3.561   2.050   2.809  2.0808 -0.9287  1.0083
  445SOL     OW 1545   4.250   0.208   0.701 -0.4882 -0.3805 -0.2286
  445SOL    HW1 1546   4.318   0.141   0.703 -0.8636 -0.7673  0.6687
  445SOL    HW2 1547   4.277   0.269   0.633  0.5829 -0.6972 -0.1005
  446SOL     OW 1548   2.218   0.626   2.071  0.1478 -0.3708  0.3281
  446SOL    HW1 1549   2.183   0.561   2.132 -0.1417 -0.5930 -0.0709
  446SOL    HW2 1550   2.233   0.704   2.125 -0.6844 -0.3668  0.5665
  447SOL     OW 1551   0.769   1.744   3.149  0.0404 -0.2755 -1.0534
  447SOL    HW1 1552   0.704   1.699   3.095 -0.5170 -0.4658 -0.2522
  447SOL    HW2 1553   0.727   1.825   3.175 -0.7433 -1.3174  1.1753
  448SOL     OW 1554   3.526   0.014   3.848  0.2529  0.1306 -0.7072
  448SOL    HW1 1555   3.450   0.069   3.868  0.2462  0.5739 -1.8731
  448SOL    HW2 1556   3.502  -0.031   3.767  0.7697 -0.6284 -0.4479
  449SOL     OW 1557   2.394   0.566   3.464 -0.7536 -0.2261  0.1836
  449SOL    HW1 1558   2.394   0.525   3.550 -2.3584  0.8936  0.7592
  449SOL    HW2 1559   2.305   0.556   3.432 -1.0467  2.1666  0.0663
  450SOL     OW 1560   2.726   1.453   2.199 -0.4701  0.2236  0.0989
  450SOL    HW1 1561   2.690   1.404   2.272 -0.1508 -1.5605 -0.8776
  450SOL    HW2 1562   2.814   1.478   2.228 -0.4644 -0.1859  0.4444
  451SOL     OW 1563   0.411   1.497   2.735  0.2089  0.1165  0.2514
  451SOL    HW1 1564   0.463   1.533   2.663  1.1724 -1.1947  0.2406
  451SOL    HW2 1565   0.475   1.479   2.804 -0.8956  2.8325  2.1441
  452SOL     OW 1566   3.500   2.025   3.109 -0.0921  0.9049 -0.0518
  452SOL    HW1 1567   3.561   1.998   3.178  0.7555  2.4999 -0.1257
  452SOL    HW2 1568   3.491   2.119   3.122  0.2169  1.2694 -2.2083
  453SOL     OW 1569   0.004   2.367   1.907  0.1208 -0.6870  0.4998
  453SOL    HW1 1570  -0.068   2.382   1.969  0.4835 -0.4111  0.8667
  453SOL    HW2 1571  -0.037   2.328   1.830 -0.4420 -0.3842  0.6446
  454SOL     OW 1572   2.438   2.008   0.068  0.2889  0.0347  0.0871
  454SOL    HW1 1573   2.473   1.926   0.035  0.5498  0.0267  0.3736
  454SOL    HW2 1574   2.473   2.075   0.009  0.1750 -0.0455 -0.0732
  455SOL     OW 1575   2.264   1.575   0.327  1.0481  0.3631 -0.4838
  455SOL    HW1 1576   2.199   1.600   0.393  1.6245 -0.0280  0.2452
  455SOL    HW2 1577   2.283   1.656   0.280  2.5385  1.2551  1.5178
  456SOL     OW 1578   1.450   0.313   0.176  0.0573  0.2627 -0.1837
  456SOL    HW1 1579   1.493   0.398   0.173 -0.7208  0.6668 -0.2681
  456SOL    HW2 1580   1.415   0.301   0.087 -1.0320  0.4987  0.2029
  457SOL     OW 1581   0.995   2.497   1.814 -0.1958 -0.2285  0.5271
  457SOL    HW1 1582   0.997   2.592   1.829 -1.5901 -0.4127  2.3711
  457SOL    HW2 1583   1.081   2.466   1.842 -0.8080  0.1751  3.1222
  458SOL     OW 1584   2.348   0.913   3.023 -0.1652 -0.0761 -0.0691
  458SOL    HW1 1585   2.419   0.976   3.035  0.5044 -0.6233 -0.9965
  458SOL    HW2 1586   2.336   0.872   3.108  1.7702 -1.1356 -0.2526
  459SOL     OW 1587   3.001   0.337   1.406 -0.3638  0.4375 -0.3798
  459SOL    HW1 1588   3.036   0.393   1.336 -0.6382 -0.1179 -0.9681
  459SOL    HW2 1589   2.951   0.397   1.461  1.2085  1.1963  0.2898
  460SOL     OW 1590   4.017   2.057   3.560  0.1286  0.7250 -0.1496
  460SOL    HW1 1591   4.037   2.146   3.531 -0.0168  0.6658 -0.4324
  460SOL    HW2 1592   4.020   2.004   3.481  0.6691  0.3964  0.0871
  461SOL     OW 1593   2.168   2.497   3.811 -0.1378  0.1416 -0.0860
  461SOL    HW1 1594   2.125   2.576   3.842  1.4048  0.9294  0.0975
  461SOL    HW2 1595   2.233   2.527   3.748 -1.0224 -1.1715 -1.7134
  462SOL     OW 1596   4.219   2.717   2.711 -0.1168 -0.1304  0.3445
  462SOL    HW1 1597   4.284   2.728   2.641  2.4237 -2.2112  2.1650
  462SOL    HW2 1598   4.139   2.692   2.665  0.9766  0.1879 -1.9208
  463SOL     OW 1599   1.657   3.306   4.080 -0.4264 -0.4336 -0.0431
  463SOL    HW1 1600   1.748   3.279   4.066 -0.2985 -0.5208  0.9103
  463SOL    HW2 1601   1.649   3.390   4.035 -0.1704 -0.9140 -1.0183
  464SOL     OW 1602   0.992   3.611   1.661 -0.4022  0.1076  0.3729
  464SOL    HW1 1603   1.079   3.612   1.700 -0.2730  0.4266  0.0787
  464SOL    HW2 1604   0.988   3.691   1.608 -0.2253 -0.7797 -1.0394
  465SOL     OW 1605   0.393   2.920   0.633 -0.3948  0.2580 -0.5594
  465SOL    HW1 1606   0.310   2.900   0.589 -0.4948  0.3813 -0.4282
  465SOL    HW2 1607   0.442   2.974   0.570  0.2071 -1.0416 -1.2372
  466SOL     OW 1608   3.283   4.155   1.020  0.2084  0.2520 -0.4206
  466SOL    HW1 1609   3.311   4.240   0.985 -1.7928  0.8574 -0.6844
  466SOL    HW2 1610   3.248   4.176   1.107 -1.0884 -0.1586 -0.8351
  467SOL     OW 1611   1.252   2.911   1.083  0.3109 -0.1176 -0.0012
  467SOL    HW1 1612   1.301   2.958   1.150 -0.5587  3.9290 -1.8760
  467SOL    HW2 1613   1.162   2.913   1.113 -0.0966  1.7927 -1.1881
  468SOL     OW 1614   2.536   3.864   1.251  0.0794 -0.9268 -0.6518
  468SOL    HW1 1615   2.447   3.890   1.228 -0.7135 -1.9865  1.0035
  468SOL    HW2 1616   2.557   3.919   1.327 -0.3218 -2.6493  0.7711
  469SOL     OW 1617   0.599   0.793   2.294  0.2588  0.1476  0.3218
  469SOL    HW1 1618   0.554   0.717   2.258  0.1264  0.7471 -0.8033
  469SOL    HW2 1619   0.620   0.768   2.384  2.1598 -2.0732 -0.6434
  470SOL     OW 1620   1.629   2.197   4.165 -0.7535  0.1552  0.5223
  470SOL    HW1 1621   1.709   2.169   4.121  0.0754  1.2229  1.3285
  470SOL    HW2 1622   1.609   2.283   4.128  0.1214  1.2083  2.3833
  471SOL     OW 1623   0.073   1.470   3.347  0.7425 -0.2485  0.2796
  471SOL    HW1 1624   0.098   1.417   3.272  2.3148  0.7305  0.0651
  471SOL    HW2 1625   0.110   1.423   3.422  0.0594 -0.6922  0.3426
  472SOL     OW 1626   1.927   4.009   0.584 -0.1467 -0.3165  0.3034
  472SOL    HW1 1627   1.912   3.919   0.554 -1.1273 -0.2772  0.6291
  472SOL    HW2 1628   1.850   4.029   0.638 -0.1839  0.8846 -0.1652
  473SOL     OW 1629   2.133   0.178   1.523  0.0734 -0.1711 -0.8299
  473SOL    HW1 1630   2.135   0.084   1.539  1.1264 -0.2616 -1.3920
  473SOL    HW2 1631   2.063   0.211   1.579 -0.3736 -1.2992 -0.6995
  474SOL     OW 1632   2.591   3.971   3.812 -0.6346  0.2461  0.3711
  474SOL    HW1 1633   2.649   4.046   3.826  0.1068 -0.5315  1.7447
  474SOL    HW2 1634   2.522   3.981   3.877 -0.5371 -0.2423  0.5589
  475SOL     OW 1635   0.891   0.315   0.493  0.6279 -0.1377  0.7505
  475SOL    HW1 1636   0.972   0.269   0.513 -0.7902 -3.0011  0.4813
  475SOL    HW2 1637   0.870   0.288   0.404  0.9480  3.1559 -0.4357
  476SOL     OW 1638   0.416   4.134   3.534  0.5419 -0.0890 -0.4568
  476SOL    HW1 1639   0.490   4.129   3.594  0.0809  0.3399  0.1580
  476SOL    HW2 1640   0.446   4.192   3.464  0.5309  0.6863  0.1716
  477SOL     OW 1641   2.530   1.346   3.852  0.0346 -0.8182 -0.0920
  477SOL    HW1 1642   2.619   1.325   3.825 -0.4019 -1.9859 -0.6958
  477SOL    HW2 1643   2.474   1.293   3.795 -1.0096 -1.0777  1.1235
  478SOL     OW 1644   3.514   0.205   2.681 -0.5207 -0.0915 -0.2718
  478SOL    HW1 1645   3.423   0.189   2.654 -0.2267 -1.4113 -0.5400
  478SOL    HW2 1646   3.528   0.146   2.755  0.1509  0.0261 -0.2988
  479SOL     OW 1647   1.299   3.656   0.578  0.4044  0.2117  0.2175
  479SOL    HW1 1648   1.347   3.585   0.535 -0.5660 -0.8940  0.8940
  479SOL    HW2 1649   1.207   3.638   0.557  0.0313  0.4242  1.5820
  480SOL     OW 1650   3.576   3.344   0.504 -0.6196  0.3748 -0.1111
  480SOL    HW1 1651   3.637   3.415   0.523 -0.1041 -0.3918  1.1663
  480SOL    HW2 1652   3.597   3.318   0.414  1.1112 -0.0306  0.3839
  481SOL     OW 1653   0.165   4.233   0.305  0.3289  0.5381 -0.1263
  481SOL    HW1 1654   0.071   4.228   0.321 -0.1334  1.9240 -2.0242
  481SOL    HW2 1655   0.195   4.301   0.366 -0.3741  1.8024 -1.1329
  482SOL     OW 1656   2.868   0.032   0.909  0.8862  0.2697 -0.0555
  482SOL    HW1 1657   2.955   0.004   0.881  0.9220  0.2534  0.0710
  482SOL    HW2 1658   2.880   0.062   0.999  0.3247 -1.8745  0.7830
  483SOL     OW 1659   1.328   2.633   4.123  0.3290 -0.0957  0.0401
  483SOL    HW1 1660   1.343   2.540   4.106 -1.4493 -0.4591  0.2658
  483SOL    HW2 1661   1.304   2.637   4.215  1.2715  0.7316  0.2726
  484SOL     OW 1662   3.815   0.071   2.124  0.5097 -0.2277  0.8062
  484SOL    HW1 1663   3.868   0.083   2.046 -0.2527 -2.1804 -0.0682
  484SOL    HW2 1664   3.806  -0.024   2.134 -0.4977 -0.0111  2.5220
  485SOL     OW 1665   0.257   1.670   4.233 -0.0233 -0.2098 -0.1057
  485SOL    HW1 1666   0.188   1.642   4.293 -0.4377  0.2871 -0.3501
  485SOL    HW2 1667   0.322   1.711   4.289 -1.3500  2.1462 -0.1731
  486SOL     OW 1668   0.565   0.567   1.279 -0.6164 -0.4486 -0.1588
  486SOL    HW1 1669   0.559   0.518   1.361  2.3811 -0.1335  0.3588
  486SOL    HW2 1670   0.556   0.659   1.304 -0.7723 -0.4137 -0.3395
  487SOL     OW 1671   2.219   2.131   1.300 -0.1267 -0.0013 -0.1694
  487SOL    HW1 1672   2.212   2.185   1.222 -0.2919 -0.5064 -0.5143
  487SOL    HW2 1673   2.164   2.054   1.281 -0.5959  0.1170  0.6553
  488SOL     OW 1674   2.297   2.000   3.481  0.2210 -0.5696  0.3639
  488SOL    HW1 1675   2.283   2.091   3.507 -1.0082 -1.1210  1.7560
  488SOL    HW2 1676   2.279   1.999   3.387 -1.2525  0.3541  0.6043
  489SOL     OW 1677   1.274   2.436   3.881 -0.4283  0.1031 -0.0040
  489SOL    HW1 1678   1.351   2.490   3.860  0.7061 -1.6883 -0.6946
  489SOL    HW2 1679   1.299   2.390   3.961 -1.5734  0.8830  0.8440
  490SOL     OW 1680   4.022   1.458   0.103 -0.1293  0.5159  0.5424
  490SOL    HW1 1681   4.050   1.520   0.037 -3.7353  1.2257 -0.5602
  490SOL    HW2 1682   4.044   1.372   0.066  1.9541  0.9767  0.5958
  491SOL     OW 1683   2.004   0.736   1.512  0.2824 -0.6631  0.0578
  491SOL    HW1 1684   1.909   0.739   1.500  0.1751  0.1972  0.9894
  491SOL    HW2 1685   2.017   0.752   1.605  1.3852  0.2365 -0.2284
  492SOL     OW 1686   2.641   1.299   2.419 -0.7620 -0.0390 -0.3167
  492SOL    HW1 1687   2.549   1.274   2.414 -1.7615  2.9264  0.8934
  492SOL    HW2 1688   2.661   1.300   2.512  0.3562 -0.1742 -0.5408
  493SOL     OW 1689   1.995   0.618   3.925  0.3489  0.1740  0.1969
  493SOL    HW1 1690   1.960   0.556   3.860  0.7696  0.6582 -0.5137
  493SOL    HW2 1691   1.928   0.686   3.932  0.1443 -0.0631  0.5393
  494SOL     OW 1692   2.904   0.169   1.971  0.3752  0.1960 -0.2431
  494SOL    HW1 1693   2.904   0.251   2.020  1.8798  1.0339 -1.5540
  494SOL    HW2 1694   2.926   0.194   1.882 -0.3679 -1.5109 -0.9558
  495SOL     OW 1695   3.777   0.732   0.444  0.5256 -0.5577 -0.4363
  495SOL    HW1 1696   3.819   0.734   0.529  0.4057 -1.6839 -0.3245
  495SOL    HW2 1697   3.686   0.755   0.461  0.0919 -2.4129  0.0519
  496SOL     OW 1698   3.562   2.781   2.116 -0.1263  0.3360  0.0567
  496SOL    HW1 1699   3.580   2.698   2.159  1.9156 -0.1648 -1.5940
  496SOL    HW2 1700   3.505   2.758   2.042 -2.7212  1.0393  1.6878
  497SOL     OW 1701   3.249   0.886   4.044  1.2012 -0.1665 -0.2118
  497SOL    HW1 1702   3.196   0.852   3.972 -0.7682 -0.7282  1.4062
  497SOL    HW2 1703   3.338   0.859   4.023  0.2798 -3.0059 -0.9667
  498SOL     OW 1704   2.490   2.180   1.248  0.1556 -0.0061  0.4453
  498SOL    HW1 1705   2.528   2.105   1.203  0.0007  0.0314  0.2476
  498SOL    HW2 1706   2.409   2.147   1.286 -0.9234  0.5003 -1.2779
  499SOL     OW 1707   1.892   1.340   2.618  0.3013  0.2128 -0.7272
  499SOL    HW1 1708   1.895   1.435   2.621  0.3689  0.1866  0.7494
  499SOL    HW2 1709   1.968   1.311   2.668 -0.4179 -0.5979 -0.0539
  500SOL     OW 1710   3.810   0.212   3.829 -0.2987 -0.1687  0.4201
  500SOL    HW1 1711   3.739   0.174   3.881 -0.2915  2.0184  2.1786
  500SOL    HW2 1712   3.890   0.189   3.877  0.1977 -1.9801 -1.1512
  501SOL     OW 1713   0.628   0.873   0.052  0.2306 -0.2868 -0.4230
  501SOL    HW1 1714   0.563   0.882   0.121  1.4906 -0.3437  0.8075
  501SOL    HW2 1715   0.695   0.938   0.073  0.8292 -0.5681 -1.3826
  502SOL     OW 1716   2.423   3.650   3.551 -0.3153  0.0850 -0.2365
  502SOL    HW1 1717   2.353   3.697   3.596 -0.8524 -2.1135  1.3956
  502SOL    HW2 1718   2.500   3.662   3.605 -0.4938 -0.9640  0.2810
  503SOL     OW 1719   0.424   2.236   0.980 -0.1581 -0.7017  0.4354
  503SOL    HW1 1720   0.495   2.186   0.941  0.5759 -0.8338  1.8697
  503SOL    HW2 1721   0.454   2.327   0.978 -0.8031 -0.4926 -0.7067
  504SOL     OW 1722   1.021   3.998   1.133  0.0415 -0.3183  0.5680
  504SOL    HW1 1723   1.087   3.949   1.183 -0.0450  0.1398  1.1415
  504SOL    HW2 1724   1.032   3.968   1.043  0.8239 -0.4779  0.7120
  505SOL     OW 1725   0.417   2.533   3.546  0.5881 -0.3506  0.2862
  505SOL    HW1 1726   0.480   2.534   3.619  0.8750  1.4519  0.0506
  505SOL    HW2 1727   0.459   2.477   3.480  0.1485 -2.3438  1.5976
  506SOL     OW 1728   3.174   0.780   2.572 -0.0242  0.1358 -0.2093
  506SOL    HW1 1729   3.188   0.793   2.478 -0.1685  1.7747 -0.0459
  506SOL    HW2 1730   3.240   0.836   2.614 -0.7565  0.3941  0.6329
  507SOL     OW 1731   1.852   3.696   2.341  0.1286  0.1602  0.2671
  507SOL    HW1 1732   1.796   3.725   2.413 -0.7782  0.3645 -0.5043
  507SOL    HW2 1733   1.920   3.763   2.335  1.1925 -0.6941  1.9820
  508SOL     OW 1734   3.912   3.522   1.266  0.3332  0.0123  0.0116
  508SOL    HW1 1735   3.847   3.578   1.307  1.5266  0.9043  0.7313
  508SOL    HW2 1736   3.992   3.575   1.263  0.0422  0.7078 -4.9069
  509SOL     OW 1737   0.971   3.457   0.993  0.6217  0.0367 -0.0518
  509SOL    HW1 1738   0.942   3.417   0.911  0.6147 -2.4798  1.0772
  509SOL    HW2 1739   1.061   3.427   1.004  1.3878  2.1321 -0.1367
  510SOL     OW 1740   0.189   2.017   3.583 -0.0624 -0.4496  0.0879
  510SOL    HW1 1741   0.098   1.989   3.576 -0.2866  0.0131  0.9621
  510SOL    HW2 1742   0.212   2.000   3.675  1.5064 -2.8370 -0.6551
  511SOL     OW 1743   0.225   0.208   2.779  0.3077  0.3815  0.3514
  511SOL    HW1 1744   0.238   0.294   2.819 -1.4351  0.6342  0.4736
  511SOL    HW2 1745   0.313   0.171   2.772  0.9426  1.4830  1.8419
  512SOL     OW 1746   3.749   2.608   3.305 -0.1660 -0.0138  0.2716
  512SOL    HW1 1747   3.738   2.531   3.361  1.0357  0.5787  1.4143
  512SOL    HW2 1748   3.776   2.573   3.220  1.9094 -0.8646  1.2004
  513SOL     OW 1749   1.645   0.051   2.446 -0.0491 -0.2190 -0.0597
  513SOL    HW1 1750   1.627  -0.043   2.443 -1.3778  0.0444 -1.4704
  513SOL    HW2 1751   1.685   0.071   2.361  1.3402  0.3060  0.6863
  514SOL     OW 1752   0.451   1.241   2.266 -0.2550 -0.5140 -0.3362
  514SOL    HW1 1753   0.364   1.278   2.251 -0.1436  0.2531  0.7651
  514SOL    HW2 1754   0.440   1.147   2.254 -0.8559 -0.2767 -1.8454
  515SOL     OW 1755   3.794   3.324   1.932  0.2593 -0.6147  0.0378
  515SOL    HW1 1756   3.818   3.390   1.996  0.6832 -0.1492 -0.5883
  515SOL    HW2 1757   3.698   3.328   1.928  0.3430  1.2274 -1.2833
  516SOL     OW 1758   3.127   1.841   2.623  0.1188  0.1880 -0.8320
  516SOL    HW1 1759   3.130   1.937   2.627 -0.9345  0.1964  0.4879
  516SOL    HW2 1760   3.158   1.812   2.708 -3.7761 -0.4389  0.5920
  517SOL     OW 1761   0.010   2.552   2.265 -0.1084 -0.2291  0.1741
  517SOL    HW1 1762  -0.074   2.597   2.256 -0.2161 -0.1727  1.3677
  517SOL    HW2 1763  -0.006   2.482   2.328  0.9111  0.2362  0.9786
  518SOL     OW 1764   2.466   4.094   1.946 -0.0449 -1.2355 -0.3043
  518SOL    HW1 1765   2.518   4.132   2.017  1.4078 -1.3331 -1.2787
  518SOL    HW2 1766   2.503   4.007   1.933  0.2447 -0.9268 -1.6995
  519SOL     OW 1767   1.248   2.726   0.906 -0.1774 -0.5966  0.3327
  519SOL    HW1 1768   1.338   2.745   0.880  0.2014 -2.2440  0.3379
  519SOL    HW2 1769   1.221   2.802   0.957  0.1585  1.3017 -2.1324
  520SOL     OW 1770   4.086   2.233   3.106  0.1383  0.4613  0.3305
  520SOL    HW1 1771   4.148   2.287   3.155  0.6004 -0.7277  1.1117
  520SOL    HW2 1772   4.101   2.144   3.138 -2.0925  0.1444  0.6514
  521SOL     OW 1773   0.729   3.090   3.503  0.2842 -0.1779 -0.0419
  521SOL    HW1 1774   0.724   3.015   3.562 -0.6066 -0.7107 -0.7485
  521SOL    HW2 1775   0.775   3.056   3.426  1.4189  0.5016  0.3192
  522SOL     OW 1776   4.289   4.040   3.703  0.1937  0.0958  0.0376
  522SOL    HW1 1777   4.321   4.086   3.780  0.5679 -0.3874  0.1711
  522SOL    HW2 1778   4.363   3.986   3.674 -0.6117 -1.3866  0.6181
  523SOL     OW 1779   0.999   2.163   1.078  0.4333 -0.0200  0.1760
  523SOL    HW1 1780   1.057   2.142   1.151 -0.2442  0.5156  0.8785
  523SOL    HW2 1781   0.986   2.257   1.083  0.1947 -0.0131 -0.4956
  524SOL     OW 1782   2.283   2.574   4.144  0.1912 -0.2535 -0.2666
  524SOL    HW1 1783   2.218   2.593   4.077  0.2531  0.3930 -0.1555
  524SOL    HW2 1784   2.367   2.596   4.103  0.6587 -3.5602 -1.3461
  525SOL     OW 1785   3.523   0.847   0.481  0.3350 -0.2301  0.2133
  525SOL    HW1 1786   3.472   0.828   0.402  2.4488 -0.2690 -1.2259
  525SOL    HW2 1787   3.507   0.939   0.498 -0.0477 -0.1856 -0.3453
  526SOL     OW 1788   1.046   4.257   2.825 -0.2422 -0.2572  0.1424
  526SOL    HW1 1789   1.066   4.188   2.762 -0.6126  0.1176 -0.3956
  526SOL    HW2 1790   1.081   4.225   2.908  2.2735  0.1739 -0.6480
  527SOL     OW 1791   0.122   2.428   4.072 -0.1087 -0.3771  0.3973
  527SOL    HW1 1792   0.089   2.397   3.988 -1.7747  1.5847  0.2522
  527SOL    HW2 1793   0.204   2.473   4.051 -0.4393 -0.0289 -0.1597
  528SOL     OW 1794   3.462   0.483   3.028 -0.8691 -0.3766 -0.6280
  528SOL    HW1 1795   3.418   0.489   2.943  0.7533 -0.2722 -1.5020
  528SOL    HW2 1796   3.535   0.423   3.013  1.1296  1.7809 -0.1245
  529SOL     OW 1797   4.261   3.298   0.136  0.1010  0.2884 -0.7006
  529SOL    HW1 1798   4.238   3.355   0.062 -1.9494  0.1893 -0.1907
  529SOL    HW2 1799   4.260   3.210   0.100 -0.6559  0.2602 -0.6120
  530SOL     OW 1800   1.908   3.654   3.240  0.7866  0.6068 -0.1607
  530SOL    HW1 1801   1.906   3.749   3.248  1.1563  0.6292 -0.2987
  530SOL    HW2 1802   1.970   3.626   3.307  0.7903  0.4750 -0.2195
  531SOL     OW 1803   1.528   3.340   1.736  0.0588 -0.6847 -0.2079
  531SOL    HW1 1804   1.452   3.368   1.684 -0.2594 -2.0724 -0.5322
  531SOL    HW2 1805   1.530   3.401   1.810 -0.2589  0.5154 -1.1738
  532SOL     OW 1806   0.819   0.482   4.195 -0.0537 -0.3834 -0.2363
  532SOL    HW1 1807   0.885   0.413   4.201 -1.8406 -2.2595 -0.9622
  532SOL    HW2 1808   0.817   0.522   4.282  1.2842 -0.9823  0.0811
  533SOL     OW 1809   0.068   4.119   2.373  0.1479 -0.5954  0.2007
  533SOL    HW1 1810   0.088   4.197   2.425  0.9374 -1.8851  1.9032
  533SOL    HW2 1811   0.124   4.127   2.296  0.0462  0.6219  0.2326
  534SOL     OW 1812   0.144   2.720   0.629 -0.0387 -0.2377  0.2714
  534SOL    HW1 1813   0.052   2.748   0.632  0.2671  0.8167  0.1002
  534SOL    HW2 1814   0.154   2.680   0.543 -0.8307 -2.2131  1.0235
  535SOL     OW 1815   2.802   3.826   2.336 -0.0286  0.3954 -0.0252
  535SOL    HW1 1816   2.868   3.818   2.404  0.4748 -0.8751 -0.6276
  535SOL    HW2 1817   2.850   3.811   2.254 -0.5769  2.0573 -0.7040
  536SOL     OW 1818   2.326   3.085   0.863 -0.0154  0.3679  0.2221
  536SOL    HW1 1819   2.317   3.117   0.774  0.7862 -0.7075 -0.2694
  536SOL    HW2 1820   2.243   3.105   0.905 -0.5353  0.5437 -0.8788
  537SOL     OW 1821   4.071   3.504   0.033  0.8299 -0.7881 -0.4874
  537SOL    HW1 1822   4.033   3.588   0.008  0.1669 -0.5632  1.1690
  537SOL    HW2 1823   4.071   3.453  -0.049  0.0349  0.3639 -1.2371
  538SOL     OW 1824   2.016   3.343   0.580 -0.4563 -0.1497  0.3712
  538SOL    HW1 1825   2.070   3.269   0.553 -1.9102 -0.8529 -0.7325
  538SOL    HW2 1826   2.063   3.381   0.654  0.5825 -1.8546  0.6407
  539SOL     OW 1827   4.008   3.285   1.721 -0.1607 -0.1928 -0.4517
  539SOL    HW1 1828   3.924   3.249   1.691  0.3510 -1.5595 -0.3452
  539SOL    HW2 1829   3.985   3.341   1.795 -0.8038 -2.4225  1.1296
  540SOL     OW 1830   2.737   1.335   4.183 -0.1063  0.2916  0.4233
  540SOL    HW1 1831   2.742   1.245   4.215  2.1833  0.1834 -0.1078
  540SOL    HW2 1832   2.825   1.370   4.194 -0.1369  1.4583 -2.2526
  541SOL     OW 1833   3.121   1.077   3.792 -0.4804 -0.6233 -0.5936
  541SOL    HW1 1834   3.050   1.014   3.798  0.7008 -1.8604  1.6184
  541SOL    HW2 1835   3.117   1.127   3.873  0.6356 -0.1323 -0.8147
  542SOL     OW 1836   0.012   1.070   0.193  0.5302 -0.4292 -0.3231
  542SOL    HW1 1837   0.053   1.040   0.274 -0.5971 -0.1122  0.3919
  542SOL    HW2 1838   0.015   0.994   0.135  0.8887 -0.8203  0.1976
  543SOL     OW 1839   2.773   2.619   3.869  0.2447  0.0300  0.2956
  543SOL    HW1 1840   2.868   2.624   3.881  0.7365 -2.1528 -1.8682
  543SOL    HW2 1841   2.755   2.678   3.796  0.3460 -1.2406 -0.7949
  544SOL     OW 1842   4.078   2.318   0.733 -0.2830  0.4705 -0.1173
  544SOL    HW1 1843   4.034   2.372   0.667  1.0750  1.8654  0.0566
  544SOL    HW2 1844   4.088   2.375   0.809  1.6196  0.1753 -0.0862
  545SOL     OW 1845   1.382   1.862   0.927  0.0998 -0.3222  0.0767
  545SOL    HW1 1846   1.452   1.827   0.983 -1.8713  0.6654  3.4234
  545SOL    HW2 1847   1.328   1.786   0.905  1.0471 -0.7655 -0.7883
  546SOL     OW 1848   1.810   1.547   0.585  0.3626 -0.2961  0.1118
  546SOL    HW1 1849   1.824   1.545   0.680  2.7367  0.1121 -0.1837
  546SOL    HW2 1850   1.768   1.463   0.566  1.5641 -1.2206  1.3075
  547SOL     OW 1851   4.024   1.016   1.267 -0.3456  0.4566  0.3025
  547SOL    HW1 1852   4.120   1.009   1.276 -0.3067  0.8784  0.2521
  547SOL    HW2 1853   3.990   0.977   1.348 -0.1632 -0.4200 -0.0293
  548SOL     OW 1854   1.546   0.408   1.614 -0.4785  0.4816  0.3522
  548SOL    HW1 1855   1.635   0.409   1.580 -0.3761 -0.8521  0.5100
  548SOL    HW2 1856   1.508   0.328   1.578 -0.9770  0.0323  1.7970
  549SOL     OW 1857   0.681   4.084   2.580 -0.6742 -0.9146 -0.4242
  549SOL    HW1 1858   0.715   3.996   2.567 -1.2760 -1.2580  0.2819
  549SOL    HW2 1859   0.618   4.096   2.509 -2.6213 -2.1074  1.0349
  550SOL     OW 1860   3.514   1.486   0.052  0.1116  0.0259 -0.1203
  550SOL    HW1 1861   3.510   1.559  -0.010 -3.4023  0.5890  0.5984
  550SOL    HW2 1862   3.446   1.426   0.023  0.7925 -1.4509  1.1772
  551SOL     OW 1863   2.557   3.875   3.131  0.4668 -0.2916  0.4791
  551SOL    HW1 1864   2.635   3.914   3.170  0.6296 -0.6627  0.5235
  551SOL    HW2 1865   2.536   3.801   3.187 -1.4273  1.2638  1.9901
  552SOL     OW 1866   0.823   3.615   2.921 -0.2348  0.1233 -0.2013
  552SOL    HW1 1867   0.790   3.534   2.960 -1.2632  1.1069  1.0765
  552SOL    HW2 1868   0.745   3.669   2.910  0.4438  0.9658 -0.9803
  553SOL     OW 1869   1.371   0.719   4.106 -0.7713 -0.1283 -0.3730
  553SOL    HW1 1870   1.278   0.703   4.092 -0.9645 -0.6805  1.2906
  553SOL    HW2 1871   1.375   0.767   4.189  0.5232 -1.8196  0.6045
  554SOL     OW 1872   2.410   1.653   0.714 -0.1260 -0.0549 -0.1327
  554SOL    HW1 1873   2.439   1.725   0.658  0.0522  0.0548  0.0981
  554SOL    HW2 1874   2.487   1.631   0.766 -0.6562  0.7803  1.0725
  555SOL     OW 1875   0.748   1.172   3.509 -0.1636  0.4995 -0.1303
  555SOL    HW1 1876   0.679   1.107   3.517  1.2638 -0.9183  1.7258
  555SOL    HW2 1877   0.705   1.255   3.527 -1.4154 -0.3433  0.9798
  556SOL     OW 1878   3.535   1.782   0.207  0.3437  0.2215  0.0093
  556SOL    HW1 1879   3.495   1.778   0.120 -2.0265 -0.5705  1.0363
  556SOL    HW2 1880   3.622   1.744   0.196  0.7742  1.6644 -2.2999
  557SOL     OW 1881   0.963   3.086   0.580  0.7346 -0.6144  0.0327
  557SOL    HW1 1882   0.868   3.076   0.573  0.7066 -0.4394  0.1667
  557SOL    HW2 1883   0.998   3.004   0.545  0.5241 -0.8701  0.4184
  558SOL     OW 1884   1.528   2.454   1.777  0.2406  0.2459  0.1724
  558SOL    HW1 1885   1.551   2.377   1.829  0.8229 -0.2786 -0.8115
  558SOL    HW2 1886   1.611   2.499   1.762  0.0491  0.5156 -0.0974
  559SOL     OW 1887   4.292   0.697   3.840  0.0680 -0.2636  0.5256
  559SOL    HW1 1888   4.303   0.692   3.936 -0.2210  1.9771  0.7209
  559SOL    HW2 1889   4.205   0.734   3.828  0.1172 -0.4986 -0.6240
  560SOL     OW 1890   0.698   1.773   1.981 -0.0294  0.1027 -0.2741
  560SOL    HW1 1891   0.647   1.751   2.059  0.1027 -0.2782 -0.2951
  560SOL    HW2 1892   0.679   1.704   1.918  0.2578  0.1312 -0.3965
  561SOL     OW 1893   1.539   3.453   3.759  0.4713  0.4429 -0.0552
  561SOL    HW1 1894   1.495   3.402   3.691  0.9361 -1.0978  0.7329
  561SOL    HW2 1895   1.472   3.462   3.828 -0.3232  2.8498 -1.0520
  562SOL     OW 1896   0.273   3.013   3.483 -0.3010 -0.0806  0.2940
  562SOL    HW1 1897   0.332   3.088   3.491 -0.5156 -0.0065  1.3687
  562SOL    HW2 1898   0.290   2.960   3.561 -0.3224 -1.0357 -0.3276
  563SOL     OW 1899   1.870   0.224   2.770 -0.3332 -0.1087  0.1815
  563SOL    HW1 1900   1.778   0.237   2.750 -0.3026  1.6080  0.9482
  563SOL    HW2 1901   1.875   0.134   2.803 -2.4131  0.7642  3.4122
  564SOL     OW 1902   0.620   4.155   0.026  0.7904  0.8613 -0.2405
  564SOL    HW1 1903   0.559   4.094   0.067 -1.3638  2.8695 -0.2375
  564SOL    HW2 1904   0.660   4.202   0.099 -0.7070  2.2750 -0.2736
  565SOL     OW 1905   0.866   1.926   3.623  0.1249  0.6562  0.2041
  565SOL    HW1 1906   0.827   2.003   3.580 -0.4828 -0.8047 -2.0259
  565SOL    HW2 1907   0.941   1.904   3.568  0.1419 -0.4892  0.6615
  566SOL     OW 1908   3.910   2.579   3.636 -0.6551  0.3758  0.4949
  566SOL    HW1 1909   3.905   2.627   3.719  0.0930  0.0193  0.7602
  566SOL    HW2 1910   3.831   2.525   3.635  0.9813 -2.4122  2.8060
  567SOL     OW 1911   0.130   0.450   1.045  0.2057 -0.5676 -0.0441
  567SOL    HW1 1912   0.110   0.445   1.138 -0.1211 -0.8347 -0.1233
  567SOL    HW2 1913   0.051   0.415   1.002  0.1071  0.1201 -0.4422
  568SOL     OW 1914   3.862   2.324   1.073  0.0343  0.3071 -0.6405
  568SOL    HW1 1915   3.828   2.401   1.119  0.3581  0.3565 -0.4833
  568SOL    HW2 1916   3.784   2.273   1.049 -0.0952 -0.2278  0.8484
  569SOL     OW 1917   1.831   2.039   1.208  0.1574 -0.1921 -0.1521
  569SOL    HW1 1918   1.862   2.050   1.119  0.9974  0.4191  0.1950
  569SOL    HW2 1919   1.817   1.945   1.218  0.5989 -0.3253 -0.7518
  570SOL     OW 1920   0.033   1.587   0.097 -1.0637  0.3428 -0.5204
  570SOL    HW1 1921   0.041   1.500   0.137  1.4828 -0.5531 -2.6764
  570SOL    HW2 1922  -0.050   1.585   0.050 -1.4896 -0.5467  0.2380
  571SOL     OW 1923   1.207   3.309   1.850 -0.2668 -0.2001  0.0696
  571SOL    HW1 1924   1.203   3.214   1.840 -0.4615 -0.2691  0.7243
  571SOL    HW2 1925   1.219   3.322   1.944  3.2314  0.3372 -0.3110
  572SOL     OW 1926   3.046   3.409   2.593 -0.2003  0.2265  0.0191
  572SOL    HW1 1927   2.978   3.449   2.647  0.4436 -1.6423  2.3926
  572SOL    HW2 1928   2.998   3.364   2.523 -1.2208  0.7495  0.3697
  573SOL     OW 1929   0.574   3.950   0.182 -0.3798  0.5567 -0.0984
  573SOL    HW1 1930   0.630   3.882   0.143 -1.8267  1.0753 -3.4659
  573SOL    HW2 1931   0.633   4.000   0.239  1.3149 -1.9294  0.5259
  574SOL     OW 1932   1.036   2.760   2.590 -0.1081 -0.6720  0.7226
  574SOL    HW1 1933   0.998   2.844   2.565 -0.6368 -0.5483  1.8981
  574SOL    HW2 1934   1.022   2.704   2.513  0.5564  0.3834 -0.2093
  575SOL     OW 1935   2.879   0.384   2.931 -0.1033 -0.3629  0.3082
  575SOL    HW1 1936   2.866   0.291   2.951 -3.8975 -0.1164 -0.3128
  575SOL    HW2 1937   2.829   0.430   2.998 -0.3674  1.1260 -0.8629
  576SOL     OW 1938   3.280   1.440   0.916 -0.0674 -0.4406 -0.2010
  576SOL    HW1 1939   3.279   1.471   0.825  0.1253 -1.0432 -0.4088
  576SOL    HW2 1940   3.327   1.357   0.912 -0.2916 -0.5959  0.4136
  577SOL     OW 1941   2.031   3.032   3.802  0.4924  0.4309 -0.3058
  577SOL    HW1 1942   2.069   3.017   3.715  1.4714 -0.2017  0.2129
  577SOL    HW2 1943   1.956   3.089   3.786  0.1597 -0.3583 -1.6609
  578SOL     OW 1944   1.882   3.914   3.275  0.6698 -0.0697 -0.3125
  578SOL    HW1 1945   1.845   3.962   3.349 -1.3655 -1.8704 -0.0442
  578SOL    HW2 1946   1.842   3.954   3.198 -1.6842 -1.7311 -0.0454
  579SOL     OW 1947   0.874   2.221   3.900 -0.2878  0.1516  0.2297
  579SOL    HW1 1948   0.949   2.252   3.849 -1.6971  0.4756 -1.7809
  579SOL    HW2 1949   0.883   2.265   3.985  1.0502  1.2574 -0.4319
  580SOL     OW 1950   1.292   3.059   3.318  0.2595  0.5515 -0.6900
  580SOL    HW1 1951   1.350   3.054   3.243  2.1693  0.8298  0.6770
  580SOL    HW2 1952   1.350   3.076   3.392 -1.6478  1.6230  0.6761
  581SOL     OW 1953   4.209   2.115   4.001  0.4366 -0.1971 -0.7345
  581SOL    HW1 1954   4.147   2.146   4.067  0.0560 -2.1339 -0.1094
  581SOL    HW2 1955   4.154   2.076   3.933  0.8696  0.8945 -1.7305
  582SOL     OW 1956   2.835   0.218   3.948  0.8654 -0.7394 -0.4641
  582SOL    HW1 1957   2.856   0.289   3.886  2.1256 -1.4195 -0.8479
  582SOL    HW2 1958   2.915   0.206   3.998  0.3228 -1.2150  0.3048
  583SOL     OW 1959   0.061   0.760   1.103  0.4845  0.5373 -0.6270
  583SOL    HW1 1960   0.115   0.771   1.181 -1.4099  2.3502  0.5288
  583SOL    HW2 1961   0.079   0.670   1.074  1.1651 -0.2400  1.9333
  584SOL     OW 1962   1.697   2.857   0.304 -0.8385 -0.0092 -0.3703
  584SOL    HW1 1963   1.762   2.928   0.302  0.1251 -0.8641 -2.4024
  584SOL    HW2 1964   1.697   2.827   0.395  1.7368 -0.0528 -0.3236
  585SOL     OW 1965   1.981   3.154   3.050 -0.2301  0.5923 -0.2520
  585SOL    HW1 1966   1.969   3.134   2.958 -1.6623 -0.8642  0.2148
  585SOL    HW2 1967   1.924   3.093   3.096 -0.5954  2.1892  1.5485
  586SOL     OW 1968   2.929   2.641   3.205  0.1020  0.0442 -0.2253
  586SOL    HW1 1969   2.970   2.636   3.291  0.7185 -1.3592 -0.5629
  586SOL    HW2 1970   2.868   2.714   3.211 -0.0187 -0.1591  1.4723
  587SOL     OW 1971   0.325   4.063   3.284  0.0817 -0.0864 -0.3056
  587SOL    HW1 1972   0.405   4.070   3.233  1.2357 -0.2740  1.3788
  587SOL    HW2 1973   0.350   4.095   3.371 -0.9217 -2.6605  1.0233
  588SOL     OW 1974   0.515   3.398   0.908  0.1315  0.4296 -0.7102
  588SOL    HW1 1975   0.448   3.370   0.846  0.4489 -0.2288 -0.7628
  588SOL    HW2 1976   0.467   3.418   0.988 -0.0568 -0.7804 -0.5063
  589SOL     OW 1977   2.223   4.112   1.383  0.5629 -0.1006  0.5160
  589SOL    HW1 1978   2.180   4.192   1.354 -0.9875 -0.9074  0.4711
  589SOL    HW2 1979   2.224   4.118   1.479  0.1464 -0.1715  0.5249
  590SOL     OW 1980   1.345   1.130   3.721 -0.7773  0.3807 -0.3971
  590SOL    HW1 1981   1.320   1.047   3.762  0.3346 -0.2486 -0.9302
  590SOL    HW2 1982   1.271   1.188   3.738 -0.4321  0.1555  2.4034
  591SOL     OW 1983   1.425   1.020   2.443  0.3804 -0.0727  0.0340
  591SOL    HW1 1984   1.338   0.980   2.453 -0.2730  1.0275 -0.9215
  591SOL    HW2 1985   1.465   1.012   2.530  0.1779 -2.4465 -0.0457
  592SOL     OW 1986   4.085   4.123   2.942 -0.0747  0.0571 -0.3252
  592SOL    HW1 1987   4.114   4.045   2.894 -1.3891 -0.9108  0.3717
  592SOL    HW2 1988   3.993   4.134   2.915 -0.0846  0.9993  0.0574
  593SOL     OW 1989   0.920   3.332   0.751 -0.6272  0.8560 -0.4010
  593SOL    HW1 1990   0.987   3.276   0.711 -0.0103  1.0699  0.3295
  593SOL    HW2 1991   0.844   3.274   0.761 -0.0595  0.2023  0.1690
  594SOL     OW 1992   2.295   1.408   1.057 -0.0785 -0.0866  0.3450
  594SOL    HW1 1993   2.277   1.431   0.965 -1.2366 -0.3650  0.4914
  594SOL    HW2 1994   2.273   1.315   1.062  0.5612 -0.2157  0.7674
  595SOL     OW 1995   1.045   0.161   1.235  0.5017 -0.2111 -0.2225
  595SOL    HW1 1996   1.060   0.176   1.328  1.0766 -0.6476 -0.2433
  595SOL    HW2 1997   0.956   0.126   1.230  0.7844 -1.0249  0.2513
  596SOL     OW 1998   2.484   1.009   1.232 -0.3785  0.3604  0.0903
  596SOL    HW1 1999   2.413   1.018   1.169 -0.8094  2.0738  0.7555
  596SOL    HW2 2000   2.487   1.094   1.276  0.2028 -0.6267  2.0622
  597SOL     OW 2001   4.057   0.105   3.651  0.1719 -0.0723 -0.2558
  597SOL    HW1 2002   4.009   0.027   3.621 -3.7314  1.4869  1.3142
  597SOL    HW2 2003   4.075   0.088   3.743  0.2944  0.4160 -0.1865
  598SOL     OW 2004   3.881   0.515   0.855  0.1765  0.3467  0.0561
  598SOL    HW1 2005   3.884   0.447   0.922 -1.7071  0.1209 -0.0326
  598SOL    HW2 2006   3.886   0.598   0.903 -0.3070  0.1710  0.4140
  599SOL     OW 2007   3.043   2.498   2.850 -0.5808  0.2948  0.0648
  599SOL    HW1 2008   3.045   2.584   2.809 -1.1428 -0.1348 -0.9028
  599SOL    HW2 2009   2.956   2.492   2.890 -0.8237 -0.0992 -0.5100
  600SOL     OW 2010   2.197   0.079   2.051  0.2880 -0.0341 -0.2806
  600SOL    HW1 2011   2.224   0.071   1.960  0.2115 -0.1283 -0.2956
  600SOL    HW2 2012   2.102   0.068   2.049 -0.0205  2.2403 -0.4771
  601SOL     OW 2013   2.373   3.030   0.398  0.1774 -0.8053  0.3261
  601SOL    HW1 2014   2.334   3.018   0.311 -3.8111  0.9429  1.6073
  601SOL    HW2 2015   2.401   2.942   0.424  0.2895 -1.5929 -2.1541
  602SOL     OW 2016   0.063   3.837   2.961 -0.0403  0.3458  0.5482
  602SOL    HW1 2017   0.115   3.917   2.951  0.0512  0.2900  0.5806
  602SOL    HW2 2018   0.126   3.766   2.953 -0.1607  0.2682  0.2598
  603SOL     OW 2019   4.131   1.142   1.678  0.3152  1.2673  0.1321
  603SOL    HW1 2020   4.197   1.120   1.743  1.0069 -0.9212 -1.1791
  603SOL    HW2 2021   4.123   1.237   1.682  1.6642  1.3559  2.0793
  604SOL     OW 2022   1.972   3.790   1.504 -0.2455  0.1517 -0.2804
  604SOL    HW1 2023   1.908   3.784   1.576  0.9443 -2.7095  0.6898
  604SOL    HW2 2024   1.957   3.876   1.467 -2.5209  0.8509  1.9094
  605SOL     OW 2025   0.646   0.471   0.357  0.0317 -0.1114  0.7283
  605SOL    HW1 2026   0.592   0.399   0.388 -0.6866  0.8058  1.6831
  605SOL    HW2 2027   0.727   0.464   0.408  0.7797 -1.3745 -0.5700
  606SOL     OW 2028   0.484   2.156   3.584 -0.0209  0.5222  0.2950
  606SOL    HW1 2029   0.414   2.168   3.648  0.7775 -1.6572  1.6822
  606SOL    HW2 2030   0.563   2.188   3.627  0.3482  0.0702 -0.0336
  607SOL     OW 2031   1.569   4.283   0.942  0.4456  0.1876  0.3367
  607SOL    HW1 2032   1.531   4.277   0.854  0.2732 -0.2062  0.4338
  607SOL    HW2 2033   1.523   4.215   0.992 -0.5139  1.3720  1.1325
  608SOL     OW 2034   0.160   3.590   2.992  0.5765 -0.6934  0.4729
  608SOL    HW1 2035   0.091   3.567   2.930  0.9216  1.4283 -0.7677
  608SOL    HW2 2036   0.223   3.518   2.986  0.3991 -0.7359 -1.3529
  609SOL     OW 2037   3.212   2.448   1.881 -0.4137 -0.3438 -0.1398
  609SOL    HW1 2038   3.155   2.404   1.944 -1.0984  0.5588 -0.0995
  609SOL    HW2 2039   3.286   2.389   1.870 -0.2987 -0.5471  1.4796
  610SOL     OW 2040   1.908   0.392   3.296  0.7842 -0.4219 -0.1157
  610SOL    HW1 2041   1.851   0.465   3.319 -0.2890 -1.4949  0.7892
  610SOL    HW2 2042   1.904   0.388   3.201 -1.3622 -0.9456 -0.0685
  611SOL     OW 2043   0.615   0.664   2.742 -0.5387  0.2156 -0.5114
  611SOL    HW1 2044   0.566   0.721   2.683  1.0284  1.5644 -0.5842
  611SOL    HW2 2045   0.701   0.655   2.701  0.7737  1.5887  1.7228
  612SOL     OW 2046   0.700   4.075   1.283 -0.5867  0.4127 -0.6750
  612SOL    HW1 2047   0.628   4.138   1.278 -0.6399  0.4660  0.6211
  612SOL    HW2 2048   0.678   4.008   1.218 -2.4603 -0.2392  0.5867
  613SOL     OW 2049   0.489   2.407   0.144  0.1024 -0.2644  0.2050
  613SOL    HW1 2050   0.490   2.353   0.223  0.8679 -1.7237 -0.7598
  613SOL    HW2 2051   0.440   2.356   0.080  0.1549  0.5548 -0.5161
  614SOL     OW 2052   2.200   0.388   0.007 -0.1819  0.1666  0.2593
  614SOL    HW1 2053   2.140   0.365   0.077  1.4688 -0.2190  1.6368
  614SOL    HW2 2054   2.263   0.315   0.004  1.4080  1.4629  0.3334
  615SOL     OW 2055   0.848   1.127   1.374  0.0868  0.3776 -0.4810
  615SOL    HW1 2056   0.898   1.168   1.303  0.3666  1.2146  0.1825
  615SOL    HW2 2057   0.865   1.183   1.450 -3.0118  1.5758 -0.5248
  616SOL     OW 2058   3.528   1.899   2.552 -0.0312 -0.4180  0.0623
  616SOL    HW1 2059   3.513   1.991   2.528 -0.3327 -0.8331 -1.4926
  616SOL    HW2 2060   3.496   1.892   2.641  1.3929  1.3334  0.7849
  617SOL     OW 2061   2.680   0.561   3.920 -0.2855  0.2860 -0.4538
  617SOL    HW1 2062   2.608   0.498   3.920  0.9670 -1.2359  0.8058
  617SOL    HW2 2063   2.754   0.514   3.881  0.3124  1.4619 -0.8005
  618SOL     OW 2064   4.044   0.893   2.796 -0.5986  0.5170  0.9327
  618SOL    HW1 2065   4.030   0.798   2.796 -2.0389  0.6904 -0.9288
  618SOL    HW2 2066   4.118   0.906   2.856  0.4235 -1.8979  0.2979
  619SOL     OW 2067   1.340   1.488   1.109 -0.0873 -0.4902  0.3231
  619SOL    HW1 2068   1.344   1.532   1.193  1.0491  4.2078 -1.8445
  619SOL    HW2 2069   1.412   1.526   1.059 -0.6010 -3.1366 -2.7824
  620SOL     OW 2070   1.862   4.218   2.740  0.1372 -0.3531  0.1810
  620SOL    HW1 2071   1.780   4.171   2.760  0.4210 -2.6115 -3.2235
  620SOL    HW2 2072   1.929   4.171   2.790 -0.2561 -0.2936  0.7766
  621SOL     OW 2073   4.047   2.936   2.381 -0.9285  0.5232 -0.4162
  621SOL    HW1 2074   4.014   2.859   2.335  1.3154 -0.9611  0.2997
  621SOL    HW2 2075   4.089   2.988   2.313 -0.5436  0.0074 -0.5803
  622SOL     OW 2076   0.172   2.305   0.236  0.0878  0.6169 -0.2022
  622SOL    HW1 2077   0.153   2.388   0.194  0.1121  0.2326 -0.9988
  622SOL    HW2 2078   0.256   2.277   0.198 -0.8314 -0.6712 -1.3971
  623SOL     OW 2079   3.144   3.325   0.482  0.1945  0.3412  0.0218
  623SOL    HW1 2080   3.228   3.366   0.461  0.3885  1.0210  1.8671
  623SOL    HW2 2081   3.079   3.383   0.443  0.5015  2.0058  1.8088
  624SOL     OW 2082   1.209   3.351   2.535  0.3508 -0.5300 -0.0394
  624SOL    HW1 2083   1.149   3.366   2.462 -1.1177 -4.3861  0.1537
  624SOL    HW2 2084   1.154   3.317   2.605  2.5390 -3.5493  0.4306
  625SOL     OW 2085   2.610   0.706   0.376  0.1433 -0.4024  0.1972
  625SOL    HW1 2086   2.541   0.680   0.315  1.1546 -1.7693 -0.4007
  625SOL    HW2 2087   2.568   0.702   0.462 -1.0340  0.6359 -0.2919
  626SOL     OW 2088   2.686   2.806   3.640 -0.1130  0.1143 -0.6175
  626SOL    HW1 2089   2.628   2.865   3.689  1.8383  0.2611  1.7009
  626SOL    HW2 2090   2.771   2.849   3.642  0.9172 -1.7995 -0.6547
  627SOL     OW 2091   3.698   1.146   0.293  0.2378 -0.4686  0.7204
  627SOL    HW1 2092   3.661   1.111   0.212  0.4955 -0.7751  0.7316
  627SOL    HW2 2093   3.780   1.098   0.304  0.6822  0.2618  0.6541
  628SOL     OW 2094   1.428   2.680   0.265  1.4714 -0.1735  0.5801
  628SOL    HW1 2095   1.479   2.736   0.323 -1.0542  0.6788  2.1488
  628SOL    HW2 2096   1.395   2.610   0.322 -0.0667 -0.0071 -0.0590
  629SOL     OW 2097   2.118   1.784   1.548 -0.3255 -1.1340  0.4047
  629SOL    HW1 2098   2.044   1.736   1.511 -0.2394 -1.7416  1.0048
  629SOL    HW2 2099   2.095   1.798   1.639  1.0548 -2.9135  1.0825
  630SOL     OW 2100   2.985   2.773   2.769 -0.7292  0.6758  0.0330
  630SOL    HW1 2101   3.060   2.815   2.726  1.5389 -1.9456  1.1188
  630SOL    HW2 2102   2.989   2.806   2.859  1.5624 -2.1335  1.1194
  631SOL     OW 2103   1.557   1.736   1.084 -0.0998 -0.3355 -0.0363
  631SOL    HW1 2104   1.601   1.785   1.153 -0.1621  2.1805 -1.6843
  631SOL    HW2 2105   1.602   1.651   1.083  1.3511  0.3529  1.6101
  632SOL     OW 2106   0.983   1.997   0.536 -0.0645  0.1384 -0.2353
  632SOL    HW1 2107   1.055   1.974   0.595  0.1038 -1.3389 -0.9525
  632SOL    HW2 2108   0.920   1.925   0.547  0.3863 -0.6789 -2.4676
  633SOL     OW 2109   3.849   0.483   3.771  0.1079  0.2812 -0.1682
  633SOL    HW1 2110   3.852   0.391   3.794  0.0321 -0.0515 -1.4287
  633SOL    HW2 2111   3.765   0.514   3.806  0.8588  0.3232  1.7483
  634SOL     OW 2112   1.952   0.291   0.525  0.3941 -0.0290 -0.2729
  634SOL    HW1 2113   1.961   0.288   0.621 -0.6393  1.0162 -0.1236
  634SOL    HW2 2114   1.940   0.200   0.499  0.4569 -0.3022  0.6145
  635SOL     OW 2115   4.155   3.980   1.965  0.1432 -0.6332  0.3198
  635SOL    HW1 2116   4.097   3.972   2.041 -0.2969  2.3615  0.4149
  635SOL    HW2 2117   4.213   4.054   1.986 -0.3651  0.6755 -2.4179
  636SOL     OW 2118   1.239   0.807   2.322  0.4978  0.0363  0.0593
  636SOL    HW1 2119   1.146   0.799   2.302  0.3209  1.8248 -0.0603
  636SOL    HW2 2120   1.283   0.756   2.255 -0.3965 -1.8038  0.7882
  637SOL     OW 2121   4.271   1.873   1.540  0.2813  0.6096 -0.1098
  637SOL    HW1 2122   4.361   1.906   1.543  0.5297  0.1610 -1.5499
  637SOL    HW2 2123   4.269   1.815   1.464 -1.0970  0.1911  0.2074
  638SOL     OW 2124   3.457   2.275   0.728 -0.7856 -0.0414  0.1068
  638SOL    HW1 2125   3.389   2.255   0.791  0.5012 -1.0022  1.2571
  638SOL    HW2 2126   3.417   2.259   0.643 -1.3351 -2.9258  0.8181
  639SOL     OW 2127   3.576   3.268   0.237  0.2708 -0.3128  0.7885
  639SOL    HW1 2128   3.630   3.253   0.160  0.0960  2.2276  0.0736
  639SOL    HW2 2129   3.486   3.271   0.203  0.1904  0.8403  1.0592
  640SOL     OW 2130   0.307   1.299   1.048 -0.4326  0.0163  0.2245
  640SOL    HW1 2131   0.309   1.366   1.116 -0.8241 -0.5853  0.8354
  640SOL    HW2 2132   0.399   1.283   1.027 -0.2833 -0.1528  0.9751
  641SOL     OW 2133   0.171   3.118   1.179  0.0992  0.0169  0.2423
  641SOL    HW1 2134   0.097   3.172   1.152  1.4116  1.8948  0.1866
  641SOL    HW2 2135   0.147   3.084   1.265 -1.3396 -0.5162 -0.3347
  642SOL     OW 2136   2.980   2.776   3.760 -0.6792 -0.2903  0.2212
  642SOL    HW1 2137   3.037   2.703   3.785  0.0471  0.2719  0.2335
  642SOL    HW2 2138   2.986   2.838   3.833  1.3553  1.3068 -1.1974
  643SOL     OW 2139   2.396   0.772   3.272 -0.0554  0.0823  0.3759
  643SOL    HW1 2140   2.402   0.701   3.335  0.7577  0.3992  0.6723
  643SOL    HW2 2141   2.352   0.843   3.319  1.5551  0.7235  0.9993
  644SOL     OW 2142   1.707   0.906   3.741  0.2593 -0.2537 -0.2328
  644SOL    HW1 2143   1.617   0.883   3.765 -0.6579  1.0673 -2.1460
  644SOL    HW2 2144   1.698   0.975   3.675  2.6175 -1.3935 -1.9187
  645SOL     OW 2145   1.184   1.191   1.693 -0.2588 -0.7034  0.1395
  645SOL    HW1 2146   1.223   1.109   1.664 -1.2563 -1.8940  1.9624
  645SOL    HW2 2147   1.251   1.229   1.750  0.6656  0.3716 -1.5866
  646SOL     OW 2148   0.430   1.182   3.927 -0.0370  0.1009 -0.5834
  646SOL    HW1 2149   0.424   1.270   3.966 -0.9594 -0.0338 -0.4164
  646SOL    HW2 2150   0.524   1.165   3.922  0.1215  0.5655  0.5868
  647SOL     OW 2151   0.046   0.393   1.376 -0.2192  0.2012  0.7460
  647SOL    HW1 2152   0.119   0.451   1.399 -0.5015  0.6028  0.6427
  647SOL    HW2 2153  -0.011   0.447   1.322 -0.1056 -0.4049  0.0010
  648SOL     OW 2154   1.206   0.749   1.784  0.0746 -0.6388  0.1805
  648SOL    HW1 2155   1.199   0.660   1.750 -0.7415 -0.3808 -0.3550
  648SOL    HW2 2156   1.244   0.738   1.871  0.9068 -1.4230 -0.2583
  649SOL     OW 2157   1.287   1.614   1.363  0.2816  0.0624  0.6570
  649SOL    HW1 2158   1.295   1.708   1.345  0.4908  0.0600  0.7315
  649SOL    HW2 2159   1.324   1.603   1.450  0.2420 -0.0872  0.6548
  650SOL     OW 2160   0.594   1.514   2.282 -0.3583 -0.3044  0.0598
  650SOL    HW1 2161   0.534   1.557   2.222 -1.8189  0.3461  1.8810
  650SOL    HW2 2162   0.574   1.421   2.275 -1.8385 -0.0794  0.8299
  651SOL     OW 2163   4.071   2.456   0.976 -1.3610 -0.1143 -0.0823
  651SOL    HW1 2164   4.039   2.544   0.956 -1.1175 -0.0302 -0.0972
  651SOL    HW2 2165   3.997   2.413   1.019 -1.0465  0.5213  1.1420
  652SOL     OW 2166   2.421   2.815   1.686  1.0738  0.2741  0.0800
  652SOL    HW1 2167   2.346   2.774   1.729 -0.7451  0.5213 -2.6027
  652SOL    HW2 2168   2.427   2.769   1.602  2.2632  2.0241 -0.8368
  653SOL     OW 2169   2.179   1.585   0.833 -0.7770  0.2099 -0.4759
  653SOL    HW1 2170   2.195   1.658   0.893 -0.1098 -1.3537  1.3341
  653SOL    HW2 2171   2.251   1.590   0.771  0.0958  0.2483  0.5111
  654SOL     OW 2172   2.467   3.465   1.938  0.0706 -0.4889  0.3747
  654SOL    HW1 2173   2.407   3.414   1.993 -0.4682  0.5854  0.8073
  654SOL    HW2 2174   2.515   3.399   1.888 -1.1679 -1.4068  0.3251
  655SOL     OW 2175   2.957   0.794   1.034 -0.0894 -0.4303 -0.2763
  655SOL    HW1 2176   2.961   0.698   1.042  1.2103 -0.2829  1.5345
  655SOL    HW2 2177   2.988   0.826   1.119 -0.2404  1.6100 -0.9440
  656SOL     OW 2178   2.854   1.539   1.941  0.0032 -0.0375  0.5370
  656SOL    HW1 2179   2.812   1.534   2.027  2.4326 -1.1936  1.7262
  656SOL    HW2 2180   2.839   1.453   1.901 -2.6536  1.0323 -1.0855
  657SOL     OW 2181   3.686   3.533   0.069  0.0973  1.4382 -0.1558
  657SOL    HW1 2182   3.678   3.616   0.021 -1.3468  0.4656 -1.6971
  657SOL    HW2 2183   3.600   3.521   0.110  0.4251  0.8843  0.3808
  658SOL     OW 2184   2.596   4.196   1.058 -0.2630  0.2316  0.2401
  658SOL    HW1 2185   2.608   4.281   1.016  1.7423  2.4635  4.6389
  658SOL    HW2 2186   2.679   4.150   1.042  0.5814  1.1627  1.6783
  659SOL     OW 2187   2.049   1.920   2.870 -0.0876  0.0128 -0.6719
  659SOL    HW1 2188   2.096   1.956   2.794  0.4897 -0.3328 -0.4769
  659SOL    HW2 2189   2.047   1.826   2.855 -0.2397 -0.0270 -0.4030
  660SOL     OW 2190   0.400   1.238   0.318 -0.0039 -0.0196 -0.4267
  660SOL    HW1 2191   0.422   1.288   0.239 -0.8179  0.9152 -0.0845
  660SOL    HW2 2192   0.330   1.288   0.360 -1.2104 -1.7111 -0.3068
  661SOL     OW 2193   0.470   2.665   0.246  0.6203  0.3849  0.4629
  661SOL    HW1 2194   0.478   2.728   0.174 -2.7541  2.7434  1.9182
  661SOL    HW2 2195   0.466   2.579   0.202 -2.5766  1.7684 -2.4239
  662SOL     OW 2196   3.888   4.220   1.158 -0.5658 -0.6222  0.1675
  662SOL    HW1 2197   3.961   4.192   1.102 -0.2674 -2.1665  1.2448
  662SOL    HW2 2198   3.910   4.309   1.184 -0.4470 -0.0518 -1.6925
  663SOL     OW 2199   2.096   0.489   1.605  0.3563 -0.4897 -0.0986
  663SOL    HW1 2200   2.056   0.563   1.559  0.7153 -0.8456 -1.0021
  663SOL    HW2 2201   2.060   0.494   1.693 -0.0673  0.4254 -0.3083
  664SOL     OW 2202   2.287   3.236   2.343 -0.3100  0.5503 -0.7667
  664SOL    HW1 2203   2.343   3.210   2.416 -0.2519  0.6127 -0.7886
  664SOL    HW2 2204   2.348   3.255   2.271 -0.3893  0.1075 -0.9516
  665SOL     OW 2205   2.426   2.073   0.348 -0.0992  0.1057 -0.3957
  665SOL    HW1 2206   2.372   2.111   0.279 -0.1783  0.4347 -0.1579
  665SOL    HW2 2207   2.492   2.021   0.302 -0.9750 -0.7776 -0.6692
  666SOL     OW 2208   4.237   3.981   1.211 -1.0396  0.3487  0.0453
  666SOL    HW1 2209   4.257   3.922   1.284 -1.6368  0.6993  0.4946
  666SOL    HW2 2210   4.321   3.989   1.164 -0.4345  0.7859  1.1717
  667SOL     OW 2211   1.985   3.202   1.658 -0.1916 -0.1503 -0.8086
  667SOL    HW1 2212   1.978   3.224   1.751  2.1009  2.0164 -1.0344
  667SOL    HW2 2213   1.896   3.184   1.631 -1.3190  1.7835  1.2503
  668SOL     OW 2214   0.379   3.797   3.103  0.3756 -0.1286  0.3086
  668SOL    HW1 2215   0.315   3.729   3.123  0.8723 -0.1751  1.8956
  668SOL    HW2 2216   0.450   3.782   3.165  2.3977 -0.6385 -1.9734
  669SOL     OW 2217   3.061   3.850   0.718  0.0005 -0.1663 -0.3642
  669SOL    HW1 2218   3.052   3.871   0.811  0.7386  1.1727 -0.5720
  669SOL    HW2 2219   3.010   3.770   0.707  0.1558 -0.5359  1.2583
  670SOL     OW 2220   2.427   3.710   3.956 -0.0542 -0.5361  0.7321
  670SOL    HW1 2221   2.493   3.772   3.989 -0.1135  0.6128 -1.1463
  670SOL    HW2 2222   2.473   3.626   3.953  1.2932  0.1756 -0.2210
  671SOL     OW 2223   1.335   2.322   4.111 -0.6625 -0.0332  0.0364
  671SOL    HW1 2224   1.318   2.233   4.143  1.5867 -0.9375 -1.0790
  671SOL    HW2 2225   1.413   2.351   4.159  0.0870  0.3426 -1.3657
  672SOL     OW 2226   3.392   0.577   0.119  0.0563  0.3209  0.3783
  672SOL    HW1 2227   3.297   0.568   0.133 -0.1240  0.5765 -0.5479
  672SOL    HW2 2228   3.411   0.667   0.146 -0.0251  0.3551  0.3267
  673SOL     OW 2229   4.228   1.757   2.405  0.1174  0.3109  0.1572
  673SOL    HW1 2230   4.179   1.682   2.371  1.2818 -0.3734 -0.0312
  673SOL    HW2 2231   4.177   1.833   2.376 -1.1757 -0.3865  0.5158
  674SOL     OW 2232   3.168   3.155   1.265  0.2525  0.2261  0.0493
  674SOL    HW1 2233   3.228   3.082   1.282 -0.1414  0.0330  0.6806
  674SOL    HW2 2234   3.198   3.224   1.324 -1.2910 -0.5400  1.8505
  675SOL     OW 2235   3.113   2.708   1.900  0.2220  0.7787 -0.5237
  675SOL    HW1 2236   3.133   2.616   1.911 -0.3743  0.6276 -0.6749
  675SOL    HW2 2237   3.045   2.710   1.833 -0.7124  1.2256  0.4143
  676SOL     OW 2238   3.508   0.047   2.886  0.3745 -0.2023  0.6979
  676SOL    HW1 2239   3.502   0.105   2.962  0.2121 -0.2236  0.7020
  676SOL    HW2 2240   3.430  -0.008   2.893  0.3803 -0.2295  0.5355
  677SOL     OW 2241   0.862   0.157   0.777  0.2194  0.1300 -0.1634
  677SOL    HW1 2242   0.887   0.249   0.772  0.5616  0.1350  1.2099
  677SOL    HW2 2243   0.928   0.117   0.834 -0.3213 -0.8220 -0.1831
  678SOL     OW 2244   3.700   3.275   3.135  0.3268 -0.3477  0.0430
  678SOL    HW1 2245   3.762   3.205   3.156 -1.2297 -1.6235  0.6101
  678SOL    HW2 2246   3.642   3.237   3.069 -0.9464  0.1566  0.8269
  679SOL     OW 2247   3.469   2.640   1.704  0.1968  0.2552 -0.1046
  679SOL    HW1 2248   3.451   2.603   1.618 -0.2334 -0.7415  0.4021
  679SOL    HW2 2249   3.564   2.630   1.715  0.4597  1.5491 -0.9711
  680SOL     OW 2250   1.983   1.582   1.195 -0.2195 -0.0416  0.5963
  680SOL    HW1 2251   2.076   1.569   1.182 -0.2657 -0.6463  0.8507
  680SOL    HW2 2252   1.949   1.496   1.217 -0.4596  0.5228  2.7048
  681SOL     OW 2253   1.679   2.830   3.151 -0.0833 -0.0614 -0.1609
  681SOL    HW1 2254   1.620   2.850   3.078  0.5203 -0.5852 -0.8073
  681SOL    HW2 2255   1.702   2.916   3.188 -0.4642  0.1998 -0.5220
  682SOL     OW 2256   4.117   0.098   2.248  0.0713 -0.7162  0.0598
  682SOL    HW1 2257   4.063   0.101   2.327  2.1189 -1.0609  1.5560
  682SOL    HW2 2258   4.085   0.022   2.200 -1.7863  0.0028  0.0633
  683SOL     OW 2259   0.630   1.255   0.918  0.1621 -0.0737  0.6251
  683SOL    HW1 2260   0.583   1.180   0.953 -1.2055  0.8768  0.9139
  683SOL    HW2 2261   0.718   1.222   0.898  0.1799 -1.2921  2.4630
  684SOL     OW 2262   0.361   0.202   3.094  0.5719 -0.4415 -0.2298
  684SOL    HW1 2263   0.401   0.220   3.008 -0.5024 -1.0103 -0.8761
  684SOL    HW2 2264   0.305   0.126   3.078  0.5476 -0.7023  1.0512
  685SOL     OW 2265   0.283   2.497   2.181  0.9067 -0.1564  0.3351
  685SOL    HW1 2266   0.192   2.500   2.211  1.1619  1.4777  1.0312
  685SOL    HW2 2267   0.276   2.485   2.086 -0.1369  2.3182  0.0393
  686SOL     OW 2268   0.544   3.398   0.515 -0.4677  0.0886 -0.4113
  686SOL    HW1 2269   0.605   3.469   0.529  0.0519 -0.5164  0.5402
  686SOL    HW2 2270   0.465   3.424   0.562 -0.3192  0.1011 -0.1660
  687SOL     OW 2271   0.368   2.165   0.111  0.3459 -0.4544 -0.0839
  687SOL    HW1 2272   0.433   2.101   0.140  0.3610  0.3225  1.7236
  687SOL    HW2 2273   0.317   2.119   0.045  0.1740 -2.4459  1.3654
  688SOL     OW 2274   1.774   0.861   1.638 -0.0750 -0.2128  0.6616
  688SOL    HW1 2275   1.689   0.868   1.595 -0.3571  0.0856  1.2482
  688SOL    HW2 2276   1.766   0.784   1.694 -0.1045  0.0542  1.0274
  689SOL     OW 2277   2.983   2.523   0.744 -0.1314  0.2471  0.2930
  689SOL    HW1 2278   2.993   2.441   0.792  1.8022  0.1909 -0.1372
  689SOL    HW2 2279   3.054   2.578   0.775  1.0103  0.3297 -2.2090
  690SOL     OW 2280   1.396   2.793   1.971 -0.0224 -0.4917 -0.2957
  690SOL    HW1 2281   1.407   2.881   2.006  0.3673 -1.0391  1.0478
  690SOL    HW2 2282   1.436   2.736   2.037 -1.1932 -1.7439 -0.6169
  691SOL     OW 2283   3.201   2.391   1.161  0.2077  0.5917  0.1375
  691SOL    HW1 2284   3.216   2.308   1.117 -1.7968  0.2664 -0.0071
  691SOL    HW2 2285   3.169   2.368   1.248 -1.3991  1.1761 -0.2721
  692SOL     OW 2286   0.031   2.962   2.781 -0.0642  0.6359 -0.4371
  692SOL    HW1 2287  -0.023   2.901   2.732  1.0927 -1.1841  0.4435
  692SOL    HW2 2288   0.048   3.034   2.720 -0.1493 -0.6770 -2.0792
  693SOL     OW 2289   2.141   2.224   3.272  0.4069 -0.5009 -0.3061
  693SOL    HW1 2290   2.224   2.223   3.320 -0.5331  0.3696  1.4238
  693SOL    HW2 2291   2.159   2.175   3.192  3.1134  1.2637 -0.9019
  694SOL     OW 2292   1.576   1.035   1.949 -0.0531 -0.2015 -0.3753
  694SOL    HW1 2293   1.499   1.003   1.902 -0.8982  0.0647  0.7647
  694SOL    HW2 2294   1.598   1.118   1.906  0.5853 -1.0473 -1.7177
  695SOL     OW 2295   0.408   3.273   4.151 -0.0724 -0.1798  0.2643
  695SOL    HW1 2296   0.388   3.304   4.062 -1.1625 -0.1513  0.5060
  695SOL    HW2 2297   0.351   3.325   4.207  1.9390  1.1370  1.1800
  696SOL     OW 2298   1.361   2.477   2.625  0.2519  0.3473 -0.1701
  696SOL    HW1 2299   1.353   2.564   2.587 -0.2332  0.2677 -0.2559
  696SOL    HW2 2300   1.271   2.452   2.646  0.4095 -0.0500  0.0385
  697SOL     OW 2301   4.133   2.773   1.686 -0.4818  0.5825 -0.1717
  697SOL    HW1 2302   4.168   2.734   1.766 -1.1364 -1.0468 -0.6275
  697SOL    HW2 2303   4.091   2.854   1.714 -0.3740  0.2306  1.0561
  698SOL     OW 2304   0.341   2.055   1.173  0.7884  0.3087  0.3564
  698SOL    HW1 2305   0.367   2.122   1.110  0.3931  0.0846 -0.0479
  698SOL    HW2 2306   0.408   1.987   1.163  0.8770  0.3935  0.3699
  699SOL     OW 2307   1.528   0.221   3.300 -0.2566  0.2175 -0.0665
  699SOL    HW1 2308   1.519   0.272   3.380 -5.2360  0.0551 -0.1945
  699SOL    HW2 2309   1.520   0.286   3.230 -2.3130 -0.1735 -0.2569
  700SOL     OW 2310   0.199   0.197   3.353 -0.1240 -0.6301  0.3549
  700SOL    HW1 2311   0.184   0.116   3.402  1.7695 -0.8282  0.6698
  700SOL    HW2 2312   0.257   0.172   3.282  0.6604  0.4779  0.5804
  701SOL     OW 2313   1.344   2.775   3.491 -0.4845  0.0886  0.0324
  701SOL    HW1 2314   1.338   2.827   3.412  1.0247  0.5440  0.1995
  701SOL    HW2 2315   1.255   2.740   3.503 -0.7918  0.1958 -1.7025
  702SOL     OW 2316   1.014   2.432   1.089 -0.1483  0.7746 -0.4482
  702SOL    HW1 2317   1.040   2.506   1.144  1.3341  1.7369 -2.2878
  702SOL    HW2 2318   0.951   2.470   1.027 -1.7260 -0.2613  0.4780
  703SOL     OW 2319   0.819   1.519   0.442 -0.1090 -0.4811 -0.1362
  703SOL    HW1 2320   0.805   1.557   0.356 -0.7201  1.7715  0.8824
  703SOL    HW2 2321   0.752   1.451   0.450  0.9202 -1.7868 -1.9590
  704SOL     OW 2322   0.785   0.077   1.224 -0.0694  0.6199  0.4992
  704SOL    HW1 2323   0.777  -0.003   1.172  0.4462 -0.0379  1.3959
  704SOL    HW2 2324   0.706   0.128   1.202  0.2064  0.4319 -0.9903
  705SOL     OW 2325   3.019   2.064   2.001 -0.5657 -0.4102 -0.0180
  705SOL    HW1 2326   3.008   1.969   2.003  0.4224 -0.5262  1.3634
  705SOL    HW2 2327   3.013   2.086   1.908 -1.1319 -1.7745 -0.3396
  706SOL     OW 2328   3.420   0.431   1.340  0.5869 -0.0831  0.0120
  706SOL    HW1 2329   3.469   0.503   1.378  0.8846 -1.8264  3.3393
  706SOL    HW2 2330   3.486   0.364   1.322  0.0511 -0.4172 -0.7535
  707SOL     OW 2331   0.543   3.095   0.490  0.0007 -0.1770  0.1811
  707SOL    HW1 2332   0.524   3.188   0.478  0.7678 -0.0210  0.1476
  707SOL    HW2 2333   0.617   3.078   0.433 -1.2037 -1.2206 -1.1408
  708SOL     OW 2334   3.456   3.942   3.755 -0.1680  0.3507 -0.4492
  708SOL    HW1 2335   3.487   3.875   3.816  3.6788  1.1079 -1.2691
  708SOL    HW2 2336   3.400   3.895   3.694  0.4516 -1.6207  0.4100
  709SOL     OW 2337   2.384   2.830   2.991  0.5633 -0.0615  0.5741
  709SOL    HW1 2338   2.340   2.829   3.076 -0.2951 -0.4279  0.1425
  709SOL    HW2 2339   2.330   2.888   2.937  0.3818 -0.8066 -0.0737
  710SOL     OW 2340   3.046   1.802   0.865  0.0247  0.3166 -0.2750
  710SOL    HW1 2341   3.139   1.809   0.848 -0.0909  0.4236 -0.8841
  710SOL    HW2 2342   3.039   1.737   0.935  0.4802 -0.5304 -0.9987
  711SOL     OW 2343   2.102   2.763   0.895 -0.2651  0.0242  0.4643
  711SOL    HW1 2344   2.141   2.706   0.828  1.0540  0.0063  1.2073
  711SOL    HW2 2345   2.177   2.808   0.935 -1.3048  3.9226 -1.4422
  712SOL     OW 2346   1.640   2.518   1.305 -0.5108 -0.2024 -0.4071
  712SOL    HW1 2347   1.552   2.483   1.311 -1.7795  2.5432 -1.2064
  712SOL    HW2 2348   1.688   2.455   1.252 -2.6052 -0.7636 -1.7240
  713SOL     OW 2349   0.792   1.822   0.532  0.2013 -0.2264 -0.3643
  713SOL    HW1 2350   0.709   1.821   0.485  0.0513 -1.4221 -0.0950
  713SOL    HW2 2351   0.825   1.733   0.524  1.9863  0.4631 -1.3587
  714SOL     OW 2352   3.497   3.907   0.233 -0.6739  0.1007  0.1202
  714SOL    HW1 2353   3.463   3.989   0.267  0.1540  1.0698 -1.2947
  714SOL    HW2 2354   3.423   3.866   0.189 -0.6297  1.0305 -0.8411
  715SOL     OW 2355   3.962   2.720   2.039 -0.1465  0.5232  0.6416
  715SOL    HW1 2356   3.916   2.768   1.970  0.1779  1.7784  1.2788
  715SOL    HW2 2357   4.054   2.745   2.029  0.0986 -0.3280  0.6972
  716SOL     OW 2358   0.202   1.311   3.182 -0.3131 -0.5739 -0.3058
  716SOL    HW1 2359   0.219   1.364   3.104 -1.9843  1.1678  0.4387
  716SOL    HW2 2360   0.274   1.248   3.183  0.8810  0.6310 -2.1395
  717SOL     OW 2361   0.066   1.143   1.852 -0.2321  0.4307  0.6634
  717SOL    HW1 2362   0.162   1.143   1.857 -0.1357  0.1025 -0.6774
  717SOL    HW2 2363   0.039   1.216   1.906  0.7828  0.5777  0.9996
  718SOL     OW 2364   1.600   2.254   1.976  0.3262  0.5153 -0.5180
  718SOL    HW1 2365   1.682   2.221   1.940 -0.0930 -0.6698 -0.4362
  718SOL    HW2 2366   1.610   2.245   2.071 -0.5216 -1.2590 -0.5598
  719SOL     OW 2367   3.843   4.216   0.670 -0.3286 -0.1730 -0.3673
  719SOL    HW1 2368   3.798   4.136   0.645 -0.6121  0.2831 -1.3748
  719SOL    HW2 2369   3.933   4.204   0.638  0.7009 -1.6003  2.7161
  720SOL     OW 2370   0.759   2.999   2.276 -0.1358  0.2813  0.4609
  720SOL    HW1 2371   0.800   2.914   2.295 -0.2868  0.6534  2.7512
  720SOL    HW2 2372   0.666   2.984   2.291 -0.5062  0.2474 -1.6270
  721SOL     OW 2373   1.319   4.104   0.790 -0.1122  0.6476 -0.1278
  721SOL    HW1 2374   1.367   4.169   0.739 -2.0838  0.3722 -2.5180
  721SOL    HW2 2375   1.359   4.020   0.766 -1.8338  0.3749 -2.4258
  722SOL     OW 2376   3.835   1.639   3.442  0.3356  0.0380  0.7400
  722SOL    HW1 2377   3.794   1.691   3.373  1.9754  0.7162  0.2266
  722SOL    HW2 2378   3.766   1.579   3.471 -0.8250  0.7336 -0.4579
  723SOL     OW 2379   0.789   3.953   1.954 -0.3315 -0.2836 -0.0606
  723SOL    HW1 2380   0.786   3.868   1.910 -1.2287 -2.1625  3.3431
  723SOL    HW2 2381   0.730   4.009   1.903  0.6788 -1.4453 -2.6774
  724SOL     OW 2382   0.492   0.345   3.883 -0.6896 -0.4041  0.1700
  724SOL    HW1 2383   0.518   0.370   3.972 -1.0586 -0.4881  0.3047
  724SOL    HW2 2384   0.410   0.391   3.869 -0.4262 -0.0675 -0.2843
  725SOL     OW 2385   0.242   0.442   2.913  0.1072 -0.5486 -0.3424
  725SOL    HW1 2386   0.219   0.449   3.005 -0.2792  0.6531 -0.5215
  725SOL    HW2 2387   0.249   0.532   2.882  1.6232 -0.9110 -1.1592
  726SOL     OW 2388   0.975   2.024   4.224  0.1486 -0.0115 -0.3335
  726SOL    HW1 2389   0.926   2.107   4.230 -0.3606 -0.3784  0.8044
  726SOL    HW2 2390   0.918   1.960   4.266  1.4080 -0.5410  0.6263
  727SOL     OW 2391   2.582   0.311   4.181  0.1481  0.4354 -0.3470
  727SOL    HW1 2392   2.550   0.326   4.092  0.3576  0.5486 -0.4023
  727SOL    HW2 2393   2.651   0.246   4.171 -0.8015 -0.6639 -0.1048
  728SOL     OW 2394   1.135   3.744   0.131  0.3130 -0.0170  0.1059
  728SOL    HW1 2395   1.081   3.703   0.199 -0.6020 -1.5374 -1.4321
  728SOL    HW2 2396   1.224   3.737   0.163 -0.1238 -0.4019  1.2989
  729SOL     OW 2397   1.441   1.339   0.196 -0.1103  0.2893  0.2091
  729SOL    HW1 2398   1.476   1.250   0.201  1.3351  0.8480  0.5502
  729SOL    HW2 2399   1.414   1.350   0.105 -2.0502 -1.0971  0.5567
  730SOL     OW 2400   0.665   3.285   2.131 -0.7758  0.4498  0.1270
  730SOL    HW1 2401   0.724   3.251   2.197  0.5398  1.6704 -0.3570
  730SOL    HW2 2402   0.593   3.223   2.128  1.3016 -2.0802 -0.4953
  731SOL     OW 2403   0.911   1.737   1.222  0.2011 -0.4424  0.2471
  731SOL    HW1 2404   0.846   1.807   1.224 -0.7280 -1.2713  2.3822
  731SOL    HW2 2405   0.976   1.765   1.158 -0.3575  2.1731  0.7408
  732SOL     OW 2406   3.463   2.626   3.328 -0.2308 -0.1054  0.2082
  732SOL    HW1 2407   3.408   2.632   3.250 -0.0382 -0.4488  0.0418
  732SOL    HW2 2408   3.492   2.535   3.330  1.0953  0.2844 -0.2373
  733SOL     OW 2409   0.233   2.494   1.925 -0.0447 -0.0052 -0.3541
  733SOL    HW1 2410   0.148   2.453   1.911  0.4166 -1.2606  0.3769
  733SOL    HW2 2411   0.236   2.566   1.861 -2.3803  1.2373  0.8219
  734SOL     OW 2412   2.421   4.185   0.104  0.1588 -0.3759  0.1102
  734SOL    HW1 2413   2.326   4.183   0.110  0.1169 -2.5494 -0.5579
  734SOL    HW2 2414   2.443   4.117   0.041  2.0326  1.9731 -1.9551
  735SOL     OW 2415   1.285   0.457   2.452  0.7299  0.0002  0.3566
  735SOL    HW1 2416   1.278   0.370   2.491  0.7871  0.4691  1.4488
  735SOL    HW2 2417   1.338   0.507   2.513 -0.9072  1.3459  0.7368
  736SOL     OW 2418   3.222   4.267   3.188  0.0926 -0.5419 -0.5486
  736SOL    HW1 2419   3.147   4.262   3.247  0.4073 -0.7834 -0.1718
  736SOL    HW2 2420   3.251   4.358   3.194 -0.4984 -0.3085 -1.1045
  737SOL     OW 2421   3.584   0.004   0.738 -0.2743  0.0052 -0.5698
  737SOL    HW1 2422   3.534  -0.002   0.657 -0.6764  0.4052 -0.3605
  737SOL    HW2 2423   3.675  -0.010   0.713 -0.5170 -1.0866 -0.9170
  738SOL     OW 2424   0.447   0.437   0.119 -0.0687  0.2757  0.0660
  738SOL    HW1 2425   0.485   0.350   0.130  0.8290  0.5811 -0.4681
  738SOL    HW2 2426   0.455   0.479   0.205 -0.9725 -0.3327  0.4623
  739SOL     OW 2427   1.721   3.139   1.614 -0.0235 -0.7030 -0.0071
  739SOL    HW1 2428   1.716   3.046   1.635 -1.5094 -0.5577  0.3964
  739SOL    HW2 2429   1.665   3.182   1.679  1.8858  0.6772  0.8226
  740SOL     OW 2430   2.428   4.153   2.572  0.1155 -0.4755  0.0559
  740SOL    HW1 2431   2.458   4.095   2.501 -0.0639 -0.1284 -0.3101
  740SOL    HW2 2432   2.409   4.236   2.528  0.9259  0.0437  0.6599
  741SOL     OW 2433   1.541   4.064   1.903 -0.5214  0.3359 -0.2673
  741SOL    HW1 2434   1.583   3.986   1.940  1.1041  0.8082 -1.0615
  741SOL    HW2 2435   1.543   4.128   1.974  2.6914  1.2777 -1.0758
  742SOL     OW 2436   2.897   2.467   0.340  0.4574  0.3197 -0.4457
  742SOL    HW1 2437   2.832   2.502   0.401 -0.0555  1.2730 -1.4987
  742SOL    HW2 2438   2.854   2.391   0.301  0.5205  0.1159 -0.1211
  743SOL     OW 2439   3.618   0.297   0.466  1.0375 -0.1690  0.4112
  743SOL    HW1 2440   3.669   0.318   0.544 -2.4458  0.0320  2.8883
  743SOL    HW2 2441   3.594   0.382   0.429  2.4654 -0.2630 -0.8224
  744SOL     OW 2442   1.151   0.169   0.551  0.4532 -0.2743  0.4991
  744SOL    HW1 2443   1.242   0.166   0.519  0.4313 -0.7029  0.4721
  744SOL    HW2 2444   1.158   0.208   0.638  0.1165  4.7055 -1.4221
  745SOL     OW 2445   0.677   0.408   2.419 -0.1741 -0.0186 -0.1791
  745SOL    HW1 2446   0.651   0.340   2.481  0.9719  0.1872  0.5651
  745SOL    HW2 2447   0.719   0.475   2.474  0.0609  0.5807 -1.0742
  746SOL     OW 2448   4.167   2.618   1.484 -0.2907 -0.1850  0.2573
  746SOL    HW1 2449   4.237   2.665   1.440 -1.1975  0.4643 -0.5344
  746SOL    HW2 2450   4.137   2.678   1.553 -0.2347 -0.3531  0.4280
  747SOL     OW 2451   0.392   0.890   1.863  0.5014  0.5833 -0.8954
  747SOL    HW1 2452   0.476   0.890   1.910  0.0454  1.5038 -0.0529
  747SOL    HW2 2453   0.389   0.804   1.820  0.9070 -0.3219  0.8121
  748SOL     OW 2454   2.284   0.623   4.248 -0.2375 -0.5456  0.0026
  748SOL    HW1 2455   2.270   0.538   4.289  3.5940 -1.1277  0.4301
  748SOL    HW2 2456   2.330   0.674   4.314  0.9050  0.5226 -1.5593
  749SOL     OW 2457   0.877   3.003   2.904  0.5872  0.2663  0.1363
  749SOL    HW1 2458   0.903   3.064   2.973  0.3975  0.2470  0.2251
  749SOL    HW2 2459   0.863   3.059   2.827 -1.3175  0.5813  0.6651
  750SOL     OW 2460   0.698   0.703   1.828  0.3395  0.3200 -0.1307
  750SOL    HW1 2461   0.773   0.723   1.772 -0.8508  1.9675 -1.2198
  750SOL    HW2 2462   0.703   0.767   1.899  0.9359 -0.7372  0.8210
  751SOL     OW 2463   0.432   2.637   3.157 -0.7903 -0.4602 -0.6047
  751SOL    HW1 2464   0.459   2.586   3.234 -3.2994 -2.0180 -0.6615
  751SOL    HW2 2465   0.371   2.580   3.111 -1.3397  1.4628 -2.3774
  752SOL     OW 2466   1.230   0.607   0.827  0.0715  0.1786  0.5588
  752SOL    HW1 2467   1.210   0.685   0.878  0.1038  0.3103  0.3699
  752SOL    HW2 2468   1.319   0.583   0.853 -0.3894 -0.5318  1.5610
  753SOL     OW 2469   1.486   3.585   3.360 -0.4869  0.6868 -0.4260
  753SOL    HW1 2470   1.414   3.522   3.366 -0.6765  0.8349 -1.0459
  753SOL    HW2 2471   1.494   3.621   3.448 -1.1998  0.6882 -0.3550
  754SOL     OW 2472   3.007   3.140   2.817  0.1003 -0.1958  0.1015
  754SOL    HW1 2473   3.036   3.217   2.769  0.6564 -0.6382 -0.2851
  754SOL    HW2 2474   2.949   3.094   2.757 -0.5349  0.1068  0.4692
  755SOL     OW 2475   2.015   1.853   3.294 -0.1450  0.9584  0.6868
  755SOL    HW1 2476   2.018   1.766   3.253  2.6429  1.3807 -0.2152
  755SOL    HW2 2477   2.037   1.836   3.386 -0.8546  0.5918  0.7950
  756SOL     OW 2478   2.834   3.971   0.220  0.1933 -0.3292 -0.3731
  756SOL    HW1 2479   2.830   4.020   0.302  2.0461 -0.8109  0.0537
  756SOL    HW2 2480   2.858   4.036   0.154 -1.0684  0.0135 -0.5188
  757SOL     OW 2481   1.609   2.885   2.321  0.2269 -0.0248 -0.1194
  757SOL    HW1 2482   1.581   2.917   2.406  2.5453  1.3435  0.2296
  757SOL    HW2 2483   1.694   2.928   2.306  0.4629 -1.1564 -2.5703
  758SOL     OW 2484   0.609   3.023   1.672 -0.2384 -0.0188 -0.3893
  758SOL    HW1 2485   0.609   3.110   1.632  1.8913  0.4786  0.5637
  758SOL    HW2 2486   0.652   2.967   1.606 -0.0361  0.0172 -0.2871
  759SOL     OW 2487   0.790   3.627   2.158  0.3331 -0.2435  0.1267
  759SOL    HW1 2488   0.808   3.629   2.064 -0.3861  0.5162 -0.0094
  759SOL    HW2 2489   0.873   3.648   2.199  0.4144  0.4855 -0.3813
  760SOL     OW 2490   0.229   0.488   4.157  0.3010  0.4104  0.3834
  760SOL    HW1 2491   0.233   0.399   4.191 -1.3264  0.4594  0.8123
  760SOL    HW2 2492   0.306   0.532   4.194 -0.0753 -0.2196  2.0264
  761SOL     OW 2493   0.296   3.086   0.932  0.6561 -0.1652  0.0411
  761SOL    HW1 2494   0.250   3.093   1.016  0.1542 -0.0859 -0.2346
  761SOL    HW2 2495   0.226   3.087   0.867  1.1432  1.9675 -0.5146
  762SOL     OW 2496   3.026   2.322   0.056  0.2699  0.7265 -0.0174
  762SOL    HW1 2497   2.968   2.365   0.119  0.8975  1.4769  0.0607
  762SOL    HW2 2498   3.106   2.304   0.104  0.3476  0.2900 -0.3053
  763SOL     OW 2499   1.869   0.463   3.698  0.0995  0.0699  0.7454
  763SOL    HW1 2500   1.872   0.382   3.647 -1.3436 -0.3142  1.2196
  763SOL    HW2 2501   1.788   0.457   3.748  0.3531  1.4677  1.3789
  764SOL     OW 2502   4.205   3.751   1.806 -0.2497  0.2757 -0.1216
  764SOL    HW1 2503   4.180   3.823   1.863 -0.7806  0.4065 -0.5056
  764SOL    HW2 2504   4.300   3.747   1.812 -0.1386  1.5429 -0.7285
  765SOL     OW 2505   0.641   1.346   2.893 -0.2355 -0.4073  0.3385
  765SOL    HW1 2506   0.726   1.387   2.877 -0.6399  0.4016  0.1835
  765SOL    HW2 2507   0.638   1.335   2.988 -0.9859  1.9578  0.6605
  766SOL     OW 2508   0.498   1.038   3.513  0.3299  0.5850 -0.1852
  766SOL    HW1 2509   0.417   1.082   3.538  0.6937  1.4447 -0.4894
  766SOL    HW2 2510   0.469   0.957   3.470 -0.3441  0.4367  0.5208
  767SOL     OW 2511   2.093   2.403   0.335  0.0886  0.5516  0.2482
  767SOL    HW1 2512   2.044   2.479   0.303 -0.3530  1.2846  2.5492
  767SOL    HW2 2513   2.065   2.392   0.425  0.2153 -2.3338  0.0198
  768SOL     OW 2514   2.815   3.013   2.639 -0.0299  0.2290  0.5141
  768SOL    HW1 2515   2.875   2.939   2.646 -1.0083 -0.5244  1.2744
  768SOL    HW2 2516   2.740   2.987   2.692 -1.3978  0.7701 -1.0708
  769SOL     OW 2517   3.307   3.689   2.041 -0.4418  0.4910  0.1618
  769SOL    HW1 2518   3.332   3.613   1.989 -0.5135 -0.1386  1.0355
  769SOL    HW2 2519   3.280   3.754   1.976  0.3895  0.0672 -0.6391
  770SOL     OW 2520   1.219   3.294   0.397  0.4847 -0.0851  0.4428
  770SOL    HW1 2521   1.223   3.215   0.343 -0.2069 -2.2569  3.3215
  770SOL    HW2 2522   1.125   3.311   0.408  0.6260  1.5575 -0.6444
  771SOL     OW 2523   1.772   4.181   0.274  0.0887 -0.2779 -0.1290
  771SOL    HW1 2524   1.816   4.223   0.200  1.4277  0.1719  0.8831
  771SOL    HW2 2525   1.816   4.096   0.282  0.1786 -0.1862  0.3494
  772SOL     OW 2526   3.228   1.277   1.186 -0.4491  0.2546  0.2523
  772SOL    HW1 2527   3.297   1.236   1.134 -1.2172  1.0805 -1.5149
  772SOL    HW2 2528   3.267   1.360   1.215  0.4013 -0.7463  2.0933
  773SOL     OW 2529   2.754   3.331   0.346 -0.2473 -0.0724  0.4019
  773SOL    HW1 2530   2.799   3.252   0.317 -0.9267  0.3534 -2.0230
  773SOL    HW2 2531   2.819   3.380   0.396  1.0668 -0.8439 -0.5102
  774SOL     OW 2532   1.038   1.493   1.293 -0.1483  0.1355  0.1491
  774SOL    HW1 2533   1.001   1.577   1.267  0.6985  0.4929  0.0760
  774SOL    HW2 2534   1.119   1.515   1.339 -0.2462 -0.6117  0.7119
  775SOL     OW 2535   1.627   1.919   3.769 -0.4749 -0.0139  0.0319
  775SOL    HW1 2536   1.689   1.871   3.824 -1.6389  0.3640  1.7572
  775SOL    HW2 2537   1.542   1.880   3.789 -0.7828 -1.2197 -3.0313
  776SOL     OW 2538   3.649   2.467   3.642 -0.0003  0.0500  0.4916
  776SOL    HW1 2539   3.650   2.415   3.562 -2.8722  0.9449 -0.2822
  776SOL    HW2 2540   3.593   2.418   3.702  0.9152  0.1111  1.4189
  777SOL     OW 2541   3.414   0.874   2.157 -0.1065  0.3602 -0.5001
  777SOL    HW1 2542   3.359   0.887   2.233 -1.0048 -0.8981 -0.9062
  777SOL    HW2 2543   3.466   0.796   2.178  1.3443  1.3591 -0.2376
  778SOL     OW 2544   3.095   2.111   1.735 -0.3120  0.1955 -0.0666
  778SOL    HW1 2545   3.185   2.090   1.760 -0.3091  0.3084  0.0171
  778SOL    HW2 2546   3.079   2.060   1.656 -0.0249  0.5159 -0.3322
  779SOL     OW 2547   3.601   4.202   3.139  0.0895  0.0967 -0.6697
  779SOL    HW1 2548   3.658   4.225   3.213  2.8354 -0.5884 -2.4498
  779SOL    HW2 2549   3.550   4.281   3.123 -0.7713  0.2124  2.0135
  780SOL     OW 2550   2.902   0.149   1.222  0.3884  0.6716  0.3476
  780SOL    HW1 2551   2.982   0.098   1.233  0.7335  1.2278  0.4758
  780SOL    HW2 2552   2.907   0.217   1.289 -0.4090  0.4472  0.6526
  781SOL     OW 2553   0.295   3.232   1.600 -0.0920  0.3099 -0.2666
  781SOL    HW1 2554   0.258   3.196   1.680 -0.4354 -0.9842 -0.9652
  781SOL    HW2 2555   0.289   3.327   1.611 -1.4028  0.1533  0.6612
  782SOL     OW 2556   1.409   2.082   3.136 -0.0049 -0.5865 -0.2338
  782SOL    HW1 2557   1.420   2.172   3.166  0.8880 -0.9900  0.7194
  782SOL    HW2 2558   1.489   2.037   3.165  0.9896 -1.0212 -3.2953
  783SOL     OW 2559   2.392   3.783   2.909  0.5554 -0.1652  0.1077
  783SOL    HW1 2560   2.474   3.802   2.956  0.3644 -1.1940  0.8786
  783SOL    HW2 2561   2.336   3.742   2.975 -0.7629  0.9397 -0.2934
  784SOL     OW 2562   2.848   3.894   1.352  0.6550 -0.3698  0.5147
  784SOL    HW1 2563   2.776   3.934   1.400 -1.4233 -1.0675 -1.8059
  784SOL    HW2 2564   2.817   3.806   1.331  1.7686 -0.3824 -1.3114
  785SOL     OW 2565   1.123   1.654   2.199 -0.5799  0.3897  0.1773
  785SOL    HW1 2566   1.165   1.677   2.116 -0.6106 -1.2262 -0.3185
  785SOL    HW2 2567   1.195   1.629   2.257 -0.5825  1.2398  0.5618
  786SOL     OW 2568   1.832   1.934   2.345 -0.1320  0.0712 -0.2959
  786SOL    HW1 2569   1.786   1.964   2.423  1.1352  1.7041 -0.0995
  786SOL    HW2 2570   1.847   1.841   2.359 -0.0905  0.2982  1.3455
  787SOL     OW 2571   2.069   1.622   0.521 -0.0639 -0.2777 -0.0212
  787SOL    HW1 2572   1.975   1.616   0.537 -0.2919 -1.6858 -1.6706
  787SOL    HW2 2573   2.108   1.556   0.578 -0.0675  0.2154  0.5645
  788SOL     OW 2574   3.086   1.363   0.482 -0.4926 -0.0140 -0.8060
  788SOL    HW1 2575   3.004   1.344   0.528 -0.0739  0.4445  0.1417
  788SOL    HW2 2576   3.094   1.458   0.484 -0.4546  0.0184 -1.8247
  789SOL     OW 2577   2.905   2.748   0.931  0.5834 -0.4763 -0.1087
  789SOL    HW1 2578   2.944   2.688   0.994 -0.6533  0.4715  1.6491
  789SOL    HW2 2579   2.970   2.818   0.921 -0.2424  0.7195  2.2353
  790SOL     OW 2580   0.459   1.647   2.081 -0.1854  0.5483 -0.1319
  790SOL    HW1 2581   0.404   1.702   2.136  0.0545  1.0479 -0.3807
  790SOL    HW2 2582   0.406   1.629   2.004 -1.2776 -1.7682  1.0560
  791SOL     OW 2583   1.012   0.852   0.787  0.8522 -0.3326 -0.2343
  791SOL    HW1 2584   1.092   0.897   0.813 -0.5572  0.7518  2.5882
  791SOL    HW2 2585   1.001   0.782   0.851 -0.3741 -0.5495 -0.6434
  792SOL     OW 2586   2.063   3.955   0.181  0.0496 -0.0748  0.9127
  792SOL    HW1 2587   1.978   3.933   0.144  0.6127 -1.8232  0.5709
  792SOL    HW2 2588   2.065   3.909   0.265  0.7080 -0.1475  0.8640
  793SOL     OW 2589   1.101   3.612   2.814  0.5235  0.1536  0.4278
  793SOL    HW1 2590   1.012   3.630   2.845  0.4579 -0.2394  0.4755
  793SOL    HW2 2591   1.089   3.544   2.748  0.7642  0.2916  0.2425
  794SOL     OW 2592   0.794   2.054   1.546  0.0913  0.2547  0.5039
  794SOL    HW1 2593   0.799   2.064   1.641 -1.8072 -0.4322  0.7073
  794SOL    HW2 2594   0.823   2.138   1.511 -1.5091  1.3769  1.7611
  795SOL     OW 2595   2.765   3.551   0.983 -0.1634  1.2170 -0.4703
  795SOL    HW1 2596   2.761   3.456   0.976 -1.5378  0.9332  2.6380
  795SOL    HW2 2597   2.680   3.576   1.019  1.0110  3.3378  0.9985
  796SOL     OW 2598   4.038   3.701   0.826 -0.2365 -0.0158  0.3133
  796SOL    HW1 2599   3.945   3.681   0.820 -0.2618  0.2044 -0.0584
  796SOL    HW2 2600   4.044   3.768   0.894 -0.1506 -1.2428  1.5694
  797SOL     OW 2601   1.942   3.965   2.479  0.3225  0.1161 -0.7210
  797SOL    HW1 2602   1.998   4.035   2.512  0.4468  0.3296 -1.3713
  797SOL    HW2 2603   1.854   3.989   2.508  0.6524 -0.7157  1.1466
  798SOL     OW 2604   0.922   3.212   3.079  0.4988 -0.4216 -0.2747
  798SOL    HW1 2605   0.827   3.218   3.071  0.3908 -0.6159  0.7532
  798SOL    HW2 2606   0.953   3.300   3.060 -0.0841  0.2662  1.7053
  799SOL     OW 2607   3.262   1.021   3.287  0.2348 -0.5099 -0.1610
  799SOL    HW1 2608   3.305   0.940   3.316  1.0771 -0.1550 -0.3706
  799SOL    HW2 2609   3.197   0.992   3.223  0.9684 -0.9847 -0.7125
  800SOL     OW 2610   2.567   0.385   2.193 -0.1140  0.0086  0.7360
  800SOL    HW1 2611   2.627   0.340   2.253 -1.6642 -0.3921  2.0687
  800SOL    HW2 2612   2.532   0.316   2.138  2.1555  0.5163 -1.5474
  801SOL     OW 2613   0.302   4.271   1.562 -0.1971  0.0528 -0.1269
  801SOL    HW1 2614   0.300   4.200   1.497  0.5150  0.3235 -0.4541
  801SOL    HW2 2615   0.285   4.350   1.511  0.0970  0.2372  0.0572
  802SOL     OW 2616   1.028   3.289   2.725  0.1829 -0.4731  0.4444
  802SOL    HW1 2617   1.081   3.290   2.804  2.5400 -1.8688 -0.9844
  802SOL    HW2 2618   0.938   3.299   2.755  0.9210 -1.6003  3.3261
  803SOL     OW 2619   3.810   1.087   1.712 -0.3699 -0.1542  0.1719
  803SOL    HW1 2620   3.840   1.130   1.792  1.3998 -1.2985  0.1966
  803SOL    HW2 2621   3.870   1.117   1.644 -0.8410 -0.4362 -0.3784
  804SOL     OW 2622   3.288   3.032   2.757 -0.1960 -0.4414 -0.2699
  804SOL    HW1 2623   3.274   3.125   2.774 -2.4627 -0.8828  0.6635
  804SOL    HW2 2624   3.210   3.004   2.709 -0.3175 -2.1476  0.8214
  805SOL     OW 2625   3.989   1.619   1.778 -0.5712 -0.8665 -0.1309
  805SOL    HW1 2626   3.990   1.638   1.684  0.8434  0.3673  0.0935
  805SOL    HW2 2627   3.900   1.639   1.805 -0.4964  0.6509 -0.8837
  806SOL     OW 2628   3.588   0.445   3.527  0.0212 -0.3796 -0.0798
  806SOL    HW1 2629   3.493   0.449   3.526  0.0728  1.6852 -1.1462
  806SOL    HW2 2630   3.611   0.453   3.620 -0.8199 -1.0144  0.1981
  807SOL     OW 2631   4.239   1.092   4.083 -0.7871 -0.2031 -0.6013
  807SOL    HW1 2632   4.314   1.033   4.072 -2.0873 -1.8764 -0.9365
  807SOL    HW2 2633   4.164   1.034   4.095 -1.8329  1.4215  1.3845
  808SOL     OW 2634   1.419   0.720   1.988  0.5278 -0.7967 -0.4689
  808SOL    HW1 2635   1.415   0.805   2.032  2.0589  0.2626 -2.2661
  808SOL    HW2 2636   1.390   0.658   2.055  0.7148  0.9576  1.3475
  809SOL     OW 2637   0.845   2.503   2.940 -0.6564  0.0802  0.5155
  809SOL    HW1 2638   0.911   2.572   2.938 -1.3016  0.7667  1.6629
  809SOL    HW2 2639   0.890   2.427   2.976  0.1249 -0.2126 -0.9849
  810SOL     OW 2640   3.354   1.813   3.238  0.2080 -0.3673 -0.4565
  810SOL    HW1 2641   3.394   1.873   3.175 -0.2678 -0.4368 -0.8331
  810SOL    HW2 2642   3.302   1.869   3.295 -0.6004 -0.4634 -1.0901
  811SOL     OW 2643   2.358   1.079   2.666  0.1274 -0.7234 -0.2245
  811SOL    HW1 2644   2.321   0.995   2.694  0.6701 -1.0327 -0.4193
  811SOL    HW2 2645   2.444   1.082   2.708 -0.0736 -0.0495  0.1547
  812SOL     OW 2646   1.064   3.349   0.158  0.3687 -0.1311 -0.0552
  812SOL    HW1 2647   1.143   3.295   0.169  0.4708  0.0892  0.3094
  812SOL    HW2 2648   1.017   3.337   0.240 -0.9116 -1.7614 -0.9699
  813SOL     OW 2649   0.716   2.266   3.714 -0.3775 -0.5011  0.1543
  813SOL    HW1 2650   0.776   2.241   3.644 -1.3160 -1.9449 -0.1690
  813SOL    HW2 2651   0.761   2.238   3.794 -0.7829 -1.9666 -0.1143
  814SOL     OW 2652   1.302   1.500   1.642 -0.0918 -0.3887 -0.1911
  814SOL    HW1 2653   1.395   1.482   1.631  0.5335  0.5455  2.6740
  814SOL    HW2 2654   1.270   1.428   1.698  0.0384  1.5174  2.5457
  815SOL     OW 2655   0.126   1.734   3.038 -0.1362 -0.2280 -0.4861
  815SOL    HW1 2656   0.164   1.818   3.012 -0.3304 -0.9114 -3.3302
  815SOL    HW2 2657   0.035   1.740   3.009  0.4271 -2.2013 -3.0163
  816SOL     OW 2658   0.042   0.294   2.009  0.0325 -0.1347  0.6886
  816SOL    HW1 2659   0.003   0.280   1.923 -0.1448  0.7943  0.5985
  816SOL    HW2 2660  -0.033   0.305   2.068  0.1433 -1.6265  1.1344
  817SOL     OW 2661   4.194   1.584   0.652 -0.3775 -0.2864  0.0480
  817SOL    HW1 2662   4.244   1.579   0.733  1.4939  2.1315 -0.8516
  817SOL    HW2 2663   4.183   1.678   0.636 -0.0157 -0.6528 -2.8786
  818SOL     OW 2664   3.805   2.872   2.237 -0.2707  0.0451 -0.3131
  818SOL    HW1 2665   3.810   2.968   2.231 -0.7426  0.1284  0.4069
  818SOL    HW2 2666   3.728   2.848   2.186 -0.4936  0.1147 -0.0162
  819SOL     OW 2667   3.346   1.837   0.805 -0.5861  0.1040  0.2246
  819SOL    HW1 2668   3.378   1.753   0.839 -0.5616 -0.4438 -1.1073
  819SOL    HW2 2669   3.425   1.891   0.796 -0.5209  0.0494  0.4500
  820SOL     OW 2670   1.813   3.865   0.162 -0.2854 -0.2932 -0.4566
  820SOL    HW1 2671   1.787   3.805   0.091  0.0526 -1.7122  0.5677
  820SOL    HW2 2672   1.781   3.823   0.242  0.2153  0.7723  0.3255
  821SOL     OW 2673   0.732   2.019   1.171 -0.1048 -0.9042 -0.4087
  821SOL    HW1 2674   0.818   2.057   1.154 -0.4623 -0.3144 -0.9478
  821SOL    HW2 2675   0.676   2.094   1.191 -0.8573 -1.1085 -1.6354
  822SOL     OW 2676   1.368   4.121   3.241  0.3450 -0.4297 -0.0435
  822SOL    HW1 2677   1.434   4.188   3.220 -2.1466  1.8051 -1.2657
  822SOL    HW2 2678   1.334   4.147   3.327 -0.1455 -0.5283 -0.2044
  823SOL     OW 2679   2.992   2.355   2.062 -0.2096 -0.0109  0.0928
  823SOL    HW1 2680   2.995   2.260   2.061 -1.4706 -0.0933  1.3926
  823SOL    HW2 2681   2.912   2.378   2.015 -0.2950  0.3776  0.4185
  824SOL     OW 2682   0.382   0.589   1.046  0.3907  0.0793 -0.0276
  824SOL    HW1 2683   0.323   0.531   0.999 -0.4447  0.6857  0.2503
  824SOL    HW2 2684   0.374   0.673   1.001  0.0362  0.5103  0.8152
  825SOL     OW 2685   3.815   1.919   1.869  0.2618  0.3681 -0.3452
  825SOL    HW1 2686   3.775   1.963   1.945 -0.7121  0.5704 -0.9483
  825SOL    HW2 2687   3.905   1.951   1.868  0.6455 -0.5178  1.3852
  826SOL     OW 2688   4.280   2.373   1.375  0.1065  0.0044 -0.2592
  826SOL    HW1 2689   4.253   2.465   1.374  0.0075 -0.0176  0.2355
  826SOL    HW2 2690   4.206   2.326   1.338 -0.1166  0.0544  0.1201
  827SOL     OW 2691   1.368   0.237   4.215  0.5446  0.5980 -0.0194
  827SOL    HW1 2692   1.351   0.260   4.124  2.2536 -0.0826 -0.5506
  827SOL    HW2 2693   1.377   0.142   4.214 -0.6405  0.4379  1.1136
  828SOL     OW 2694   0.668   0.631   1.021 -0.0339  0.3604  0.7745
  828SOL    HW1 2695   0.734   0.561   1.020 -0.7252 -0.3398 -0.6957
  828SOL    HW2 2696   0.607   0.606   1.090 -0.5633 -0.8290 -0.0815
  829SOL     OW 2697   0.746   0.473   1.618  0.1897 -0.3856 -0.6994
  829SOL    HW1 2698   0.791   0.555   1.638  1.7390 -1.4756  0.5746
  829SOL    HW2 2699   0.817   0.412   1.596 -0.6901 -2.0116  0.7588
  830SOL     OW 2700   1.800   3.152   0.619 -0.4144  0.3594  0.0213
  830SOL    HW1 2701   1.880   3.203   0.632 -0.8845  0.8559  1.0869
  830SOL    HW2 2702   1.830   3.066   0.590  0.7671 -0.5720  3.4943
  831SOL     OW 2703   3.689   2.964   1.144 -0.2224 -1.0330 -0.8322
  831SOL    HW1 2704   3.651   3.051   1.158 -2.0205 -2.0939  1.6761
  831SOL    HW2 2705   3.647   2.909   1.210  1.7597 -3.5714 -1.5385
  832SOL     OW 2706   3.390   3.178   1.593  0.7646  0.1284 -0.4598
  832SOL    HW1 2707   3.341   3.228   1.527  0.2124 -0.0180 -0.1651
  832SOL    HW2 2708   3.323   3.138   1.648  1.1549 -1.8351 -1.3231
  833SOL     OW 2709   2.683   3.134   0.003  0.6170 -0.1624 -0.1122
  833SOL    HW1 2710   2.669   3.228  -0.011 -1.7440 -0.4603 -0.1176
  833SOL    HW2 2711   2.706   3.127   0.095 -0.5845  0.3194  0.2434
  834SOL     OW 2712   1.893   1.230   0.817 -0.2902 -0.0786 -0.4040
  834SOL    HW1 2713   1.834   1.207   0.889  0.5853 -1.0576  0.0331
  834SOL    HW2 2714   1.894   1.152   0.761  0.8572 -0.2320 -0.2012
  835SOL     OW 2715   1.867   0.970   2.011 -0.0526  0.5860 -0.2671
  835SOL    HW1 2716   1.864   0.992   1.917 -1.9327 -2.5964 -1.1298
  835SOL    HW2 2717   1.775   0.965   2.036  0.2512 -2.4679  0.6084
  836SOL     OW 2718   0.592   4.073   1.768 -0.1247 -0.1481 -0.1085
  836SOL    HW1 2719   0.641   4.126   1.706 -0.0766 -0.9946 -0.8106
  836SOL    HW2 2720   0.524   4.131   1.802  1.6033  1.1936  1.2136
  837SOL     OW 2721   0.328   0.036   0.566 -0.4935 -0.0588  0.2219
  837SOL    HW1 2722   0.372   0.115   0.599 -0.5283  0.8998 -1.8609
  837SOL    HW2 2723   0.309  -0.015   0.645  1.2647  1.0920  1.4801
  838SOL     OW 2724   2.137   4.214   4.063  0.4308 -0.1494  0.2245
  838SOL    HW1 2725   2.171   4.245   4.147 -0.7973  0.7529  0.4254
  838SOL    HW2 2726   2.077   4.143   4.086 -0.2900  0.4268  0.1832
  839SOL     OW 2727   0.482   2.175   2.006  0.0022 -0.6006  0.0451
  839SOL    HW1 2728   0.392   2.148   1.986 -0.3799  0.9787 -0.5736
  839SOL    HW2 2729   0.477   2.213   2.093  0.0344 -0.4151 -0.0326
  840SOL     OW 2730   4.052   3.246   1.289  0.4852 -0.0169  0.4167
  840SOL    HW1 2731   4.014   3.292   1.215  0.9063  2.5141  1.6588
  840SOL    HW2 2732   3.989   3.177   1.310 -0.0055 -0.2812 -1.7655
  841SOL     OW 2733   1.021   1.455   3.764  0.6647  0.3840  0.8661
  841SOL    HW1 2734   0.954   1.489   3.706  1.0087 -1.8056 -0.9576
  841SOL    HW2 2735   1.096   1.513   3.752  0.1838  0.9144  0.3854
  842SOL     OW 2736   2.786   2.291   1.109 -0.6311  0.0772 -0.3987
  842SOL    HW1 2737   2.692   2.288   1.094 -0.7856  0.9403  0.3628
  842SOL    HW2 2738   2.799   2.364   1.170  0.3500 -1.0303  0.7823
  843SOL     OW 2739   3.316   3.558   1.778 -0.2142 -0.5374  0.1639
  843SOL    HW1 2740   3.241   3.503   1.755 -0.5484  0.2544 -0.6635
  843SOL    HW2 2741   3.300   3.641   1.735  0.3876  0.1665  1.2595
  844SOL     OW 2742   1.188   1.317   2.782  0.3380  0.5093  0.1561
  844SOL    HW1 2743   1.206   1.350   2.870 -1.4540 -1.1955  1.2454
  844SOL    HW2 2744   1.187   1.222   2.792  0.7455  0.2526 -1.8693
  845SOL     OW 2745   1.987   1.481   2.289 -0.6598 -0.1513  0.0740
  845SOL    HW1 2746   2.060   1.464   2.348  0.0394 -0.8649 -0.9583
  845SOL    HW2 2747   1.927   1.535   2.340  1.2244  1.6588  0.4858
  846SOL     OW 2748   3.399   2.538   2.905  0.1368  0.2121 -0.0812
  846SOL    HW1 2749   3.484   2.552   2.948  0.0487 -0.8500  0.4737
  846SOL    HW2 2750   3.335   2.576   2.965 -0.0320 -1.6844  1.0535
  847SOL     OW 2751   3.792   2.472   0.255 -0.5968 -0.0963  0.3507
  847SOL    HW1 2752   3.801   2.406   0.324  0.5855  0.5457  0.8228
  847SOL    HW2 2753   3.787   2.555   0.301  3.1211  0.6620 -0.3122
  848SOL     OW 2754   3.301   0.735   1.930 -0.2982 -0.4007 -0.3552
  848SOL    HW1 2755   3.357   0.783   1.991 -0.4540 -1.1298  0.3888
  848SOL    HW2 2756   3.264   0.802   1.873  2.6933 -0.0161 -2.0742
  849SOL     OW 2757   3.125   1.030   2.141  0.3174  0.3728 -0.8178
  849SOL    HW1 2758   3.040   1.045   2.100  0.3255  0.0024 -0.9768
  849SOL    HW2 2759   3.189   1.049   2.072  0.3288 -0.3227 -1.0066
  850SOL     OW 2760   0.272   2.847   4.024  0.2602  0.0860  0.1223
  850SOL    HW1 2761   0.305   2.867   4.111  1.2658 -1.8198  0.2484
  850SOL    HW2 2762   0.343   2.798   3.982 -0.7189 -0.2090 -1.2756
  851SOL     OW 2763   1.391   0.964   1.711  0.1166 -0.2178 -0.1765
  851SOL    HW1 2764   1.442   0.936   1.635  1.4305  1.4269  0.0443
  851SOL    HW2 2765   1.355   0.882   1.747  1.0850 -1.2285 -1.4200
  852SOL     OW 2766   2.166   0.967   0.072  0.7187 -0.2821  0.6813
  852SOL    HW1 2767   2.162   0.916   0.153  0.8436 -0.3567  0.6412
  852SOL    HW2 2768   2.139   0.906   0.003  1.7852 -0.5765  0.5073
  853SOL     OW 2769   2.679   2.064   4.207 -0.2252  1.4932  0.1038
  853SOL    HW1 2770   2.768   2.065   4.244 -0.2938  1.4636  0.2688
  853SOL    HW2 2771   2.677   1.985   4.153 -0.6656  0.6057  1.3668
  854SOL     OW 2772   1.851   1.225   4.207  0.1371  0.0913 -0.2063
  854SOL    HW1 2773   1.908   1.186   4.274  1.0504  0.6678 -0.6378
  854SOL    HW2 2774   1.799   1.152   4.175  1.1132 -0.5874 -0.2838
  855SOL     OW 2775   1.824   0.556   2.010 -0.3851 -0.1857  0.4307
  855SOL    HW1 2776   1.794   0.589   2.095 -1.6255  1.1076 -0.4631
  855SOL    HW2 2777   1.756   0.583   1.948 -0.2413 -2.3406 -0.7829
  856SOL     OW 2778   0.106   0.999   2.606  0.3835 -0.0649  0.6537
  856SOL    HW1 2779   0.170   0.986   2.536 -0.4655  0.5141 -0.2783
  856SOL    HW2 2780   0.158   1.004   2.686  1.3818 -0.8310  0.0782
  857SOL     OW 2781   1.564   2.914   0.078 -0.4953 -0.1315  0.2325
  857SOL    HW1 2782   1.550   3.007   0.093 -2.3985 -0.5620  1.3786
  857SOL    HW2 2783   1.624   2.887   0.148  0.9606  0.4042 -0.7556
  858SOL     OW 2784   1.589   3.265   3.090 -0.3674 -0.7506  0.0829
  858SOL    HW1 2785   1.663   3.205   3.099 -0.2336 -0.7198 -0.7354
  858SOL    HW2 2786   1.628   3.352   3.092 -0.1515 -0.7519 -2.0213
  859SOL     OW 2787   4.122   1.678   4.237 -0.2463 -0.5107 -0.2311
  859SOL    HW1 2788   4.091   1.691   4.147  1.6912 -0.6115 -0.9680
  859SOL    HW2 2789   4.090   1.754   4.285  1.1284  1.0992 -1.7315
  860SOL     OW 2790   1.018   2.412   0.581  0.2550 -0.1478  0.4537
  860SOL    HW1 2791   0.927   2.394   0.604  0.5603 -0.7888  1.2066
  860SOL    HW2 2792   1.015   2.494   0.532 -0.9205 -1.0022 -0.9887
  861SOL     OW 2793   1.678   2.652   0.970  0.1591  0.4993 -0.1024
  861SOL    HW1 2794   1.606   2.715   0.978 -0.8917 -0.8973  2.3539
  861SOL    HW2 2795   1.710   2.640   1.059  2.4337 -0.1480 -0.9264
  862SOL     OW 2796   0.382   0.158   0.983 -0.4914  0.3301 -0.2869
  862SOL    HW1 2797   0.405   0.193   0.898  0.4263  1.3517  0.3604
  862SOL    HW2 2798   0.433   0.077   0.990  1.7052  1.6725  0.4075
  863SOL     OW 2799   0.653   3.889   1.075  0.8340  0.4564 -0.0268
  863SOL    HW1 2800   0.619   3.887   0.986 -0.7017  0.5589  0.5275
  863SOL    HW2 2801   0.716   3.817   1.078  1.1064  0.6271 -1.2636
  864SOL     OW 2802   4.143   0.545   1.754  0.7816 -0.2229 -0.0303
  864SOL    HW1 2803   4.237   0.560   1.742  0.8601 -0.2652  0.5022
  864SOL    HW2 2804   4.135   0.451   1.771  0.6389 -0.2271 -0.1200
  865SOL     OW 2805   2.506   3.320   2.169  0.6515 -0.2492  0.6917
  865SOL    HW1 2806   2.582   3.332   2.227  0.6456 -2.5110  1.2555
  865SOL    HW2 2807   2.537   3.259   2.102 -0.3368 -0.2637  0.2344
  866SOL     OW 2808   2.383   3.443   0.608 -0.7238 -0.2666 -0.1307
  866SOL    HW1 2809   2.410   3.501   0.680  1.4472 -0.6419 -0.5694
  866SOL    HW2 2810   2.343   3.368   0.652 -1.0343  0.2992  0.5815
  867SOL     OW 2811   0.445   2.720   2.139  0.4834 -0.0564  0.1959
  867SOL    HW1 2812   0.376   2.657   2.162 -0.2196  0.9089  0.8184
  867SOL    HW2 2813   0.461   2.705   2.046 -0.8246 -0.0786 -0.0467
  868SOL     OW 2814   3.724   4.024   2.432 -0.3112 -0.3034  0.0194
  868SOL    HW1 2815   3.684   3.946   2.393  0.9183 -0.7469 -0.4263
  868SOL    HW2 2816   3.733   4.002   2.525 -0.1730 -0.6135 -0.0633
  869SOL     OW 2817   2.579   2.759   3.363  0.1863  0.3051 -0.5758
  869SOL    HW1 2818   2.625   2.770   3.446 -0.9386  1.3280 -0.0461
  869SOL    HW2 2819   2.515   2.690   3.380  0.2988  0.1604 -0.7433
  870SOL     OW 2820   0.663   2.290   1.193  0.1861  0.1322 -0.4379
  870SOL    HW1 2821   0.722   2.352   1.237  1.9679 -1.4035 -0.5652
  870SOL    HW2 2822   0.576   2.329   1.205  0.8571  1.1006  2.1998
  871SOL     OW 2823   0.484   2.539   0.987 -0.2460  0.3599  0.2181
  871SOL    HW1 2824   0.465   2.618   0.936 -1.0860  0.3537  0.5049
  871SOL    HW2 2825   0.525   2.571   1.067 -0.6776  0.5116  0.3774
  872SOL     OW 2826   4.147   1.404   2.856 -0.7624 -0.1752 -0.0224
  872SOL    HW1 2827   4.118   1.365   2.773  0.0209 -0.3200 -0.2408
  872SOL    HW2 2828   4.137   1.333   2.920  4.0607 -2.1917 -1.0428
  873SOL     OW 2829   1.045   4.142   3.083  0.0377 -0.4405 -0.1188
  873SOL    HW1 2830   1.109   4.071   3.089  0.5673  0.0558  0.2333
  873SOL    HW2 2831   0.993   4.135   3.163  1.3508  0.7399  0.8819
  874SOL     OW 2832   4.075   2.051   1.899  0.1981  0.2335 -0.0740
  874SOL    HW1 2833   4.071   2.130   1.845 -0.8916  3.0834  3.7343
  874SOL    HW2 2834   4.157   2.009   1.873  0.6260  2.3442 -2.5996
  875SOL     OW 2835   3.846   3.053   3.222  0.1547  0.3652  0.0138
  875SOL    HW1 2836   3.936   3.039   3.251  0.2397 -0.0239 -0.4301
  875SOL    HW2 2837   3.797   2.980   3.260 -0.0090  0.6667  0.3924
  876SOL     OW 2838   3.875   3.092   2.067 -0.0840 -0.3430  0.0744
  876SOL    HW1 2839   3.828   3.163   2.024 -0.0359 -0.4733 -0.1929
  876SOL    HW2 2840   3.966   3.120   2.068 -0.3008  0.3614  1.4893
  877SOL     OW 2841   1.433   3.219   2.337 -0.2215 -0.2418 -0.2970
  877SOL    HW1 2842   1.403   3.303   2.300  0.1795 -0.0471 -0.1827
  877SOL    HW2 2843   1.527   3.229   2.346 -0.3056 -0.3006  0.7384
  878SOL     OW 2844   1.671   2.514   0.384 -0.7638 -0.1702 -0.0962
  878SOL    HW1 2845   1.612   2.443   0.409 -0.0017 -1.3809 -1.5759
  878SOL    HW2 2846   1.659   2.523   0.290  0.4832  0.4284 -0.2236
  879SOL     OW 2847   3.777   3.956   1.609 -0.8103  0.5420 -0.5684
  879SOL    HW1 2848   3.802   3.990   1.694 -0.7876  1.6749 -1.0133
  879SOL    HW2 2849   3.854   3.967   1.554 -0.3304 -1.5323 -0.3862
  880SOL     OW 2850   3.437   1.296   1.473  0.0109 -0.1690  0.0104
  880SOL    HW1 2851   3.510   1.274   1.415  0.3883 -0.2001  0.4907
  880SOL    HW2 2852   3.478   1.318   1.556 -0.5627 -0.8427  0.4865
  881SOL     OW 2853   2.644   1.390   2.716  0.1888 -0.3083  0.4042
  881SOL    HW1 2854   2.618   1.319   2.774  1.3148 -0.5882  0.5859
  881SOL    HW2 2855   2.739   1.395   2.725  0.2176  0.6406 -0.2761
  882SOL     OW 2856   0.597   1.317   0.001  0.6448  0.1512 -0.3870
  882SOL    HW1 2857   0.660   1.332  -0.069  0.8863  1.9149  0.1443
  882SOL    HW2 2858   0.518   1.365  -0.026  1.0289  1.6015  0.8811
  883SOL     OW 2859   3.892   2.642   0.894  0.0050 -0.1838 -0.1321
  883SOL    HW1 2860   3.798   2.625   0.886  0.3656 -2.7425  0.0060
  883SOL    HW2 2861   3.899   2.737   0.903 -2.7096 -0.0438  1.7990
  884SOL     OW 2862   2.812   3.451   3.147 -1.0877  0.3144  0.0292
  884SOL    HW1 2863   2.899   3.460   3.108  0.8150 -0.4204  3.7114
  884SOL    HW2 2864   2.807   3.360   3.173 -3.2766  0.2001 -0.6076
  885SOL     OW 2865   0.482   3.213   3.479 -0.7365 -0.2781  1.0228
  885SOL    HW1 2866   0.479   3.249   3.390 -1.3642 -0.1369  1.0950
  885SOL    HW2 2867   0.569   3.174   3.486 -1.6766 -3.0333 -0.7316
  886SOL     OW 2868   1.204   3.111   0.841  0.5891 -0.2023 -0.3398
  886SOL    HW1 2869   1.121   3.063   0.842 -1.2805  2.7550 -1.4538
  886SOL    HW2 2870   1.208   3.153   0.927  1.4778 -1.1204  0.0846
  887SOL     OW 2871   3.392   0.893   2.679  0.5301 -0.5464 -0.0248
  887SOL    HW1 2872   3.461   0.942   2.635 -1.4559  3.7862  1.1725
  887SOL    HW2 2873   3.429   0.871   2.764  0.7973  0.8969  0.2553
  888SOL     OW 2874   4.152   0.308   3.135  0.1058 -0.1047 -0.2142
  888SOL    HW1 2875   4.203   0.256   3.072  0.1627 -0.1947 -0.0952
  888SOL    HW2 2876   4.210   0.380   3.160  0.2869 -0.3738  0.1465
  889SOL     OW 2877   1.346   2.424   3.541 -0.0281 -0.1150 -0.8550
  889SOL    HW1 2878   1.434   2.396   3.567  0.0846 -0.1420 -1.2631
  889SOL    HW2 2879   1.335   2.509   3.584 -0.0803 -0.4365 -0.2229
  890SOL     OW 2880   2.575   1.194   0.538  0.9875  0.3554  0.1056
  890SOL    HW1 2881   2.566   1.249   0.460 -0.6705  0.1728  0.1261
  890SOL    HW2 2882   2.527   1.241   0.606  1.9633  0.2439  0.8948
  891SOL     OW 2883   0.515   1.487   3.264  0.3975  0.0159 -0.4843
  891SOL    HW1 2884   0.534   1.566   3.315 -0.9325 -0.6657  1.1625
  891SOL    HW2 2885   0.434   1.507   3.218  0.6120 -0.0451 -0.9007
  892SOL     OW 2886   0.614   3.865   2.241  0.7358  0.5459  0.3743
  892SOL    HW1 2887   0.652   3.792   2.192  1.7616  0.9548  0.5430
  892SOL    HW2 2888   0.632   3.942   2.187  1.2104  0.9026  1.0302
  893SOL     OW 2889   3.818   1.985   0.968 -0.2721 -0.5205 -0.0430
  893SOL    HW1 2890   3.762   2.062   0.981  2.8738  1.6336  2.0136
  893SOL    HW2 2891   3.870   2.006   0.891  0.5277 -0.5792  0.4656
  894SOL     OW 2892   1.351   2.677   1.726  0.1860 -0.3103 -0.1013
  894SOL    HW1 2893   1.389   2.592   1.704  1.2958  0.1524 -0.0268
  894SOL    HW2 2894   1.369   2.687   1.819  2.1878  1.0152 -0.5642
  895SOL     OW 2895   1.936   2.152   0.561 -0.3451 -0.0706 -0.2450
  895SOL    HW1 2896   1.931   2.244   0.533 -0.9566 -0.5480 -1.8360
  895SOL    HW2 2897   1.939   2.156   0.656 -2.1840  1.5438 -0.1935
  896SOL     OW 2898   1.097   2.411   2.319 -0.0476 -0.1782 -0.5636
  896SOL    HW1 2899   1.132   2.493   2.284  0.5526 -0.9669 -1.8913
  896SOL    HW2 2900   1.049   2.372   2.246 -1.3767 -0.4389  0.4178
  897SOL     OW 2901   2.623   1.542   4.036 -0.4220  0.4252 -0.0207
  897SOL    HW1 2902   2.576   1.518   3.956 -0.7092  2.7879 -0.6335
  897SOL    HW2 2903   2.670   1.463   4.061 -2.4508 -1.1680 -0.9993
  898SOL     OW 2904   3.138   0.292   3.035 -0.3233  0.6282  0.3947
  898SOL    HW1 2905   3.193   0.299   3.114  1.8753  0.0642 -1.0152
  898SOL    HW2 2906   3.112   0.383   3.017  0.9564  1.0644  0.5929
  899SOL     OW 2907   1.408   1.822   3.403  0.0543  0.7428 -0.5082
  899SOL    HW1 2908   1.440   1.855   3.487 -0.3294 -0.2882  0.0511
  899SOL    HW2 2909   1.339   1.884   3.378 -0.1827  0.7630  0.1795
  900SOL     OW 2910   0.209   4.265   3.119 -0.6519  0.5258  0.4272
  900SOL    HW1 2911   0.254   4.206   3.179 -1.1351  0.9253  1.1940
  900SOL    HW2 2912   0.116   4.245   3.130 -0.7817  0.9934  0.2284
  901SOL     OW 2913   1.625   0.262   2.652  0.4231 -0.2997 -0.2464
  901SOL    HW1 2914   1.635   0.201   2.578 -0.6286  0.0223 -0.6731
  901SOL    HW2 2915   1.539   0.241   2.688  0.0278  0.9562 -0.4270
  902SOL     OW 2916   4.156   1.058   2.601  0.1602 -0.7202  0.1495
  902SOL    HW1 2917   4.128   1.012   2.680 -2.9288  0.1056 -0.3539
  902SOL    HW2 2918   4.249   1.037   2.593  0.3013 -1.7834  3.3178
  903SOL     OW 2919   2.116   2.717   3.965  0.5229  0.0712  0.0183
  903SOL    HW1 2920   2.177   2.790   3.954 -0.2825  0.6436 -0.7049
  903SOL    HW2 2921   2.030   2.757   3.968  0.0426 -0.8738 -0.6536
  904SOL     OW 2922   1.068   1.823   1.014  0.1583 -0.3177 -0.2263
  904SOL    HW1 2923   1.030   1.903   0.978  0.2997 -0.3609 -0.4730
  904SOL    HW2 2924   1.124   1.789   0.944  0.5305 -0.3389  0.0796
  905SOL     OW 2925   2.063   3.948   4.111 -0.2421 -0.5098  0.3802
  905SOL    HW1 2926   1.984   3.914   4.152 -0.9183 -0.6607 -1.0181
  905SOL    HW2 2927   2.127   3.877   4.120 -0.8314 -1.1157 -0.1273
  906SOL     OW 2928   2.924   3.506   0.519  0.2241  0.2279  0.1465
  906SOL    HW1 2929   2.840   3.552   0.522 -0.0296 -0.1820 -0.4634
  906SOL    HW2 2930   2.958   3.513   0.608 -0.7808 -0.2074  0.5810
  907SOL     OW 2931   1.732   4.271   0.527 -1.2541  0.6699 -0.2055
  907SOL    HW1 2932   1.739   4.246   0.434 -2.0922 -0.7670  0.0902
  907SOL    HW2 2933   1.823   4.273   0.558 -0.9905  0.8096 -0.9613
  908SOL     OW 2934   3.899   3.952   3.621 -0.4270 -0.1877  0.5803
  908SOL    HW1 2935   3.994   3.959   3.608 -0.6110  0.7193 -0.5022
  908SOL    HW2 2936   3.868   4.043   3.619 -1.3740 -0.5026  0.4347
  909SOL     OW 2937   0.167   2.124   4.188 -0.5602 -0.0103  0.0107
  909SOL    HW1 2938   0.095   2.102   4.129  1.2347 -0.5121 -2.1615
  909SOL    HW2 2939   0.166   2.220   4.193 -0.8048  0.0346 -0.7871
  910SOL     OW 2940   0.341   1.700   0.241 -0.3763  0.3631 -0.2322
  910SOL    HW1 2941   0.416   1.668   0.291 -0.5230 -0.1297 -0.3185
  910SOL    HW2 2942   0.294   1.758   0.302 -1.6614 -1.7750  0.9225
  911SOL     OW 2943   1.273   3.315   0.668  0.1218  0.1357 -0.1989
  911SOL    HW1 2944   1.227   3.246   0.715  2.8367 -1.3104  0.5025
  911SOL    HW2 2945   1.267   3.289   0.576 -0.6843  0.1586 -0.1653
  912SOL     OW 2946   1.949   3.469   3.782 -0.0269  0.0766  0.0116
  912SOL    HW1 2947   1.932   3.399   3.846 -3.6380 -0.0500 -0.8684
  912SOL    HW2 2948   1.936   3.550   3.832  0.2527  0.0382  0.1471
  913SOL     OW 2949   3.965   0.403   2.949  0.1019 -0.4518  0.2832
  913SOL    HW1 2950   3.911   0.450   3.011  0.6595 -0.4404  0.7659
  913SOL    HW2 2951   4.020   0.346   3.002  0.5075 -0.5260 -0.2011
  914SOL     OW 2952   1.235   1.649   0.872 -0.5692 -0.6562  0.5897
  914SOL    HW1 2953   1.157   1.607   0.906 -0.7735 -0.7055  0.0730
  914SOL    HW2 2954   1.285   1.579   0.830 -2.0773 -0.0827 -2.4571
  915SOL     OW 2955   0.795   0.188   1.470  0.2950 -0.2951  0.3586
  915SOL    HW1 2956   0.712   0.233   1.463  0.4369 -0.1743 -0.8649
  915SOL    HW2 2957   0.797   0.129   1.394  1.5385  0.0779  0.0728
  916SOL     OW 2958   3.916   4.025   0.066 -0.2720 -0.2389 -0.2030
  916SOL    HW1 2959   3.962   3.961   0.119  1.6751  1.1215 -0.1451
  916SOL    HW2 2960   3.888   4.092   0.128  0.5232  0.5195 -0.6382
  917SOL     OW 2961   0.300   1.782   2.257  0.2440  0.3264  0.1914
  917SOL    HW1 2962   0.243   1.713   2.291  0.6365 -0.7925 -1.3495
  917SOL    HW2 2963   0.259   1.863   2.287 -2.2207 -0.4249 -0.9127
  918SOL     OW 2964   0.931   1.489   0.017 -0.7143 -0.0197  0.3100
  918SOL    HW1 2965   0.947   1.540  -0.062  0.6537 -0.4135  0.2989
  918SOL    HW2 2966   0.930   1.398  -0.013 -0.7419 -0.1365  0.6587
  919SOL     OW 2967   1.571   2.581   2.801  0.5931 -0.0040 -0.2306
  919SOL    HW1 2968   1.497   2.547   2.750  0.3787 -1.9477  1.2464
  919SOL    HW2 2969   1.642   2.519   2.783  1.6437  1.3600 -0.9682
  920SOL     OW 2970   2.933   3.728   1.087 -0.1191  0.0170 -0.3796
  920SOL    HW1 2971   2.858   3.671   1.066 -0.1796  0.8552 -2.8104
  920SOL    HW2 2972   2.992   3.672   1.137 -0.4260 -2.0662 -2.1852
  921SOL     OW 2973   1.877   1.997   3.080  0.4678  0.0182  0.7582
  921SOL    HW1 2974   1.927   1.971   3.158 -0.1507 -2.3485  0.4484
  921SOL    HW2 2975   1.935   1.977   3.006 -0.0858 -0.6315  0.4948
  922SOL     OW 2976   0.564   3.583   3.783 -0.4231 -0.1914 -0.5213
  922SOL    HW1 2977   0.518   3.633   3.716 -0.3853  0.7571  0.1462
  922SOL    HW2 2978   0.530   3.616   3.866  0.7633 -0.1433 -0.0364
  923SOL     OW 2979   2.679   3.880   0.878  0.0212 -0.3371  0.0749
  923SOL    HW1 2980   2.726   3.927   0.948  0.7990 -1.5699  0.4144
  923SOL    HW2 2981   2.595   3.857   0.918  0.0239 -0.0842  0.2313
  924SOL     OW 2982   0.987   1.797   1.939  1.0266  0.0561  0.2686
  924SOL    HW1 2983   0.975   1.725   1.877 -0.9051  1.9690 -1.7622
  924SOL    HW2 2984   0.900   1.815   1.972  1.3752  1.8035  0.3094
  925SOL     OW 2985   0.334   2.246   3.833 -0.2011  0.2240 -0.5843
  925SOL    HW1 2986   0.308   2.154   3.839 -0.6378  0.3547 -0.4897
  925SOL    HW2 2987   0.309   2.284   3.918  2.8010 -0.2873  0.6781
  926SOL     OW 2988   1.597   3.160   3.850 -0.2254 -0.2005 -0.3143
  926SOL    HW1 2989   1.503   3.157   3.871 -0.2031 -0.6420 -0.2497
  926SOL    HW2 2990   1.637   3.203   3.926 -0.2674 -0.8681  0.0950
  927SOL     OW 2991   3.267   2.644   3.115 -0.3417 -0.0899  0.4940
  927SOL    HW1 2992   3.176   2.639   3.146 -0.9480 -1.0563 -1.2905
  927SOL    HW2 2993   3.277   2.734   3.085 -0.9033 -0.1389  0.1499
  928SOL     OW 2994   0.950   2.980   0.884  0.5380 -0.4656  0.2712
  928SOL    HW1 2995   0.939   2.892   0.847 -1.2348  0.0196 -0.5088
  928SOL    HW2 2996   0.900   3.037   0.825  1.9080  1.1362  0.5745
  929SOL     OW 2997   3.598   0.906   1.786  0.1148  0.0917  0.2701
  929SOL    HW1 2998   3.595   0.835   1.722  0.6676  0.6434 -0.4015
  929SOL    HW2 2999   3.674   0.958   1.759 -0.1269  0.7864  0.8967
  930SOL     OW 3000   0.588   0.122   3.798  0.5026 -0.3028  0.1601
  930SOL    HW1 3001   0.537   0.203   3.793  0.8190 -0.1426 -0.6405
  930SOL    HW2 3002   0.565   0.084   3.883 -1.4301 -0.5608 -0.4440
  931SOL     OW 3003   2.186   3.604   3.393 -0.1317  0.2776 -0.1429
  931SOL    HW1 3004   2.218   3.516   3.375  1.3491  0.6590  0.4976
  931SOL    HW2 3005   2.251   3.642   3.452 -0.7957  1.7679 -0.3201
  932SOL     OW 3006   3.371   3.619   3.239  0.2852 -0.2571  0.1216
  932SOL    HW1 3007   3.430   3.585   3.172  0.4984 -1.2751  0.7942
  932SOL    HW2 3008   3.427   3.639   3.314 -0.1094 -0.4345  0.4726
  933SOL     OW 3009   3.365   0.289   3.929  0.2845 -0.3585 -0.2572
  933SOL    HW1 3010   3.436   0.257   3.985  0.8241  0.9745 -0.1392
  933SOL    HW2 3011   3.366   0.384   3.941 -0.6513 -0.1988 -1.2838
  934SOL     OW 3012   1.089   1.809   1.532 -0.2333 -0.2386  0.7898
  934SOL    HW1 3013   1.102   1.805   1.437 -2.6542 -1.2201  0.4302
  934SOL    HW2 3014   1.148   1.742   1.567  0.7975  0.2388  0.0204
  935SOL     OW 3015   1.918   1.526   0.838 -0.2657  0.3434 -0.2606
  935SOL    HW1 3016   1.919   1.431   0.849  0.9625  0.3183 -0.4861
  935SOL    HW2 3017   2.009   1.550   0.821 -0.7041  1.4419 -1.2516
  936SOL     OW 3018   1.814   3.800   4.146  0.2097  0.3492 -0.3902
  936SOL    HW1 3019   1.740   3.779   4.089  0.3723 -1.9052  0.1435
  936SOL    HW2 3020   1.827   3.721   4.198  2.6289  0.9195 -0.0414
  937SOL     OW 3021   4.215   0.739   2.291 -0.2574 -0.1459  0.4003
  937SOL    HW1 3022   4.227   0.687   2.211  0.1887 -0.4506  0.6577
  937SOL    HW2 3023   4.266   0.692   2.357  0.0093  0.5302  0.6762
  938SOL     OW 3024   0.224   2.276   2.935 -0.0158 -0.5807  0.1404
  938SOL    HW1 3025   0.232   2.369   2.915  1.6186 -0.6406  0.4020
  938SOL    HW2 3026   0.269   2.232   2.863 -0.5923 -1.1649  0.1269
  939SOL     OW 3027   3.812   4.200   0.276 -0.1117  0.1138 -0.2241
  939SOL    HW1 3028   3.867   4.278   0.267 -1.1802  0.8660 -0.4493
  939SOL    HW2 3029   3.736   4.230   0.327 -0.3456 -0.8893  0.0459
  940SOL     OW 3030   1.126   0.586   0.072  0.0214 -0.0085  0.4002
  940SOL    HW1 3031   1.165   0.663   0.030  2.7615 -0.4612  1.9335
  940SOL    HW2 3032   1.102   0.616   0.160 -0.1980 -0.5725  0.5389
  941SOL     OW 3033   1.474   1.974   0.424 -0.1320 -0.0678 -0.6081
  941SOL    HW1 3034   1.419   2.003   0.496  1.6122 -1.3921  1.3750
  941SOL    HW2 3035   1.543   2.040   0.418 -0.3815  0.1425 -1.2118
  942SOL     OW 3036   1.312   1.382   0.468  0.3735  0.4412 -0.1182
  942SOL    HW1 3037   1.296   1.292   0.498 -0.9736  0.3897 -0.8761
  942SOL    HW2 3038   1.374   1.372   0.395  0.9103  0.2210  0.3625
  943SOL     OW 3039   3.756   3.696   0.499  0.9443  0.2131 -0.3097
  943SOL    HW1 3040   3.759   3.784   0.463 -1.2235  0.4934  0.0598
  943SOL    HW2 3041   3.797   3.641   0.433  1.7908  1.3986 -0.8055
  944SOL     OW 3042   2.134   4.093   2.048 -0.6419  0.2588  0.2734
  944SOL    HW1 3043   2.188   4.061   1.975 -2.7630 -0.4667 -1.0838
  944SOL    HW2 3044   2.184   4.166   2.085  1.4609 -0.6799 -0.5581
  945SOL     OW 3045   2.218   3.590   1.545 -0.4531 -0.0722  0.2929
  945SOL    HW1 3046   2.235   3.680   1.517  0.9154 -0.5113 -0.3883
  945SOL    HW2 3047   2.265   3.582   1.628 -1.0807  0.0167  0.6588
  946SOL     OW 3048   3.501   0.322   1.798 -0.2730  0.0815  0.0464
  946SOL    HW1 3049   3.484   0.241   1.846 -0.0523 -0.9002 -1.4970
  946SOL    HW2 3050   3.424   0.334   1.743  0.0824  0.4534 -0.3748
  947SOL     OW 3051   1.472   0.809   3.857  0.1009  0.2361 -0.1052
  947SOL    HW1 3052   1.395   0.866   3.844  0.2064  0.5054  0.4115
  947SOL    HW2 3053   1.456   0.767   3.942  1.1020  1.2358  0.6012
  948SOL     OW 3054   0.361   0.767   3.997  0.3797  0.0903 -0.6449
  948SOL    HW1 3055   0.406   0.736   3.919  0.6942  2.3851 -1.4506
  948SOL    HW2 3056   0.407   0.725   4.070  2.1481  0.3599 -1.5612
  949SOL     OW 3057   1.985   1.217   0.427 -0.1147 -0.5763  0.3286
  949SOL    HW1 3058   1.987   1.166   0.508 -0.2829 -2.6280 -0.8805
  949SOL    HW2 3059   2.057   1.279   0.436 -0.7563 -0.0506  2.4513
  950SOL     OW 3060   4.050   4.025   3.295 -0.0290  0.0963 -0.0945
  950SOL    HW1 3061   4.100   4.093   3.249  1.4824 -0.8224  0.1051
  950SOL    HW2 3062   4.070   3.944   3.246 -1.8879 -0.2214 -0.4106
  951SOL     OW 3063   3.311   0.280   0.347  0.3179  0.1533  0.2696
  951SOL    HW1 3064   3.352   0.352   0.396  0.8652  0.3327 -0.4284
  951SOL    HW2 3065   3.338   0.295   0.257  2.5662 -2.3687  0.4275
  952SOL     OW 3066   0.443   1.937   1.731  0.1821 -0.0954 -0.0780
  952SOL    HW1 3067   0.489   2.016   1.760  1.1440 -0.8786  0.5771
  952SOL    HW2 3068   0.448   1.877   1.805  0.4043 -1.1749 -0.9415
  953SOL     OW 3069   0.239   0.451   3.384 -0.4852 -0.1963  0.1009
  953SOL    HW1 3070   0.226   0.357   3.375 -0.9201 -0.1343  0.0567
  953SOL    HW2 3071   0.314   0.471   3.329 -1.9812 -0.0973 -2.0106
  954SOL     OW 3072   2.326   2.850   1.002 -0.0218  0.0450  0.2276
  954SOL    HW1 3073   2.390   2.781   0.983  0.3467  0.1785  0.9593
  954SOL    HW2 3074   2.364   2.929   0.965  0.6826  0.2995  1.4518
  955SOL     OW 3075   2.515   2.799   0.714  0.4421 -0.1393  0.1004
  955SOL    HW1 3076   2.599   2.755   0.708  1.7848  2.1364  0.8188
  955SOL    HW2 3077   2.534   2.890   0.692 -2.0162  0.3019 -0.5334
  956SOL     OW 3078   3.313   1.488   0.262 -0.3741 -0.4636 -0.0543
  956SOL    HW1 3079   3.323   1.404   0.308  0.2228 -0.4261 -0.1044
  956SOL    HW2 3080   3.403   1.515   0.242 -0.5934 -0.1253 -0.6077
  957SOL     OW 3081   3.123   0.739   0.718 -0.2718 -0.1370 -0.1423
  957SOL    HW1 3082   3.128   0.747   0.622  0.0759 -2.1385 -0.3446
  957SOL    HW2 3083   3.033   0.764   0.739 -0.1772  0.9165 -0.9016
  958SOL     OW 3084   1.990   1.588   3.223  0.1887 -0.0077  0.1015
  958SOL    HW1 3085   2.015   1.498   3.243  2.7320  0.8283  1.2054
  958SOL    HW2 3086   1.981   1.590   3.128  0.7541 -1.2923 -0.0059
  959SOL     OW 3087   3.243   1.706   2.856 -0.1951 -0.1986 -0.2923
  959SOL    HW1 3088   3.331   1.731   2.885  0.0925 -0.0403 -1.2416
  959SOL    HW2 3089   3.201   1.670   2.934  1.1918 -1.5739 -0.1275
  960SOL     OW 3090   0.211   2.064   1.966 -0.0377 -0.9770  0.0880
  960SOL    HW1 3091   0.139   2.042   1.906  0.2464  0.4984 -0.8577
  960SOL    HW2 3092   0.168   2.108   2.039 -0.1677 -0.6191 -0.1993
  961SOL     OW 3093   2.882   1.594   3.349  0.2698  0.3833 -0.3446
  961SOL    HW1 3094   2.858   1.540   3.274 -0.1361 -1.5254  1.0769
  961SOL    HW2 3095   2.803   1.643   3.371  1.0210  2.7843 -2.5006
  962SOL     OW 3096   0.070   3.672   3.774 -0.2362 -0.1000 -0.2398
  962SOL    HW1 3097   0.041   3.738   3.712  1.1665 -0.2373 -1.0757
  962SOL    HW2 3098   0.125   3.613   3.723  0.0615 -0.8574  0.9030
  963SOL     OW 3099   2.600   0.262   3.545 -0.3245 -0.1566  0.1677
  963SOL    HW1 3100   2.679   0.215   3.519 -0.8402 -0.7844 -0.2959
  963SOL    HW2 3101   2.632   0.341   3.587  0.5494  0.4121 -1.4952
  964SOL     OW 3102   2.863   3.168   0.676 -0.1660  0.4732 -0.3488
  964SOL    HW1 3103   2.792   3.202   0.730  1.7718  2.2597  1.2573
  964SOL    HW2 3104   2.938   3.224   0.697  1.7742 -1.3909 -1.8411
  965SOL     OW 3105   4.126   3.033   3.286  0.0026 -0.0328  0.4482
  965SOL    HW1 3106   4.158   3.064   3.201  0.7915  0.1191  0.7936
  965SOL    HW2 3107   4.121   2.938   3.276  0.3683 -0.0410  0.3187
  966SOL     OW 3108   2.794   2.855   1.976  0.1214 -0.7199  0.1607
  966SOL    HW1 3109   2.872   2.905   1.953  2.0377 -2.0921  3.0315
  966SOL    HW2 3110   2.802   2.841   2.071 -3.6988 -0.8779  0.6064
  967SOL     OW 3111   1.357   3.333   3.579  0.1413 -0.2666 -0.0433
  967SOL    HW1 3112   1.276   3.335   3.529  0.6830 -0.6040 -0.9532
  967SOL    HW2 3113   1.410   3.265   3.537  1.6769  1.2620 -0.7372
  968SOL     OW 3114   1.248   2.634   0.088  0.1092 -0.4002 -0.1437
  968SOL    HW1 3115   1.314   2.656   0.154 -0.7153  0.8713  0.3043
  968SOL    HW2 3116   1.165   2.659   0.129 -0.4985 -0.4440 -1.3238
  969SOL     OW 3117   3.153   3.865   3.152 -0.3863  0.6847  0.0715
  969SOL    HW1 3118   3.241   3.901   3.144 -0.2998  0.0952 -2.0777
  969SOL    HW2 3119   3.166   3.777   3.189 -0.2605  1.2202  1.3685
  970SOL     OW 3120   1.066   3.444   3.505  0.1408  0.3069 -0.3612
  970SOL    HW1 3121   1.102   3.507   3.567  1.8674 -0.8272 -0.1223
  970SOL    HW2 3122   1.106   3.467   3.421  0.0126  0.1328 -0.4710
  971SOL     OW 3123   2.968   3.772   2.116  0.6993 -0.7084  0.6664
  971SOL    HW1 3124   3.000   3.823   2.041 -0.0502 -0.1276  0.7277
  971SOL    HW2 3125   2.944   3.687   2.079 -0.7040 -0.0676  0.0031
  972SOL     OW 3126   0.829   2.355   1.621  0.4484  0.2356 -0.2658
  972SOL    HW1 3127   0.858   2.419   1.686 -0.5729 -1.2523  1.7968
  972SOL    HW2 3128   0.754   2.397   1.578 -0.2296  0.4612  1.0764
  973SOL     OW 3129   1.658   2.140   2.218 -0.1868  0.1887 -0.3541
  973SOL    HW1 3130   1.658   2.200   2.293  0.1479  0.0866 -0.2717
  973SOL    HW2 3131   1.721   2.072   2.242 -1.8159 -1.1735  0.3321
  974SOL     OW 3132   0.467   1.025   0.933  0.3319 -0.0211 -0.2722
  974SOL    HW1 3133   0.395   0.965   0.915 -0.1682 -0.5028  2.7859
  974SOL    HW2 3134   0.536   0.970   0.970  0.1132  1.0930  1.9755
  975SOL     OW 3135   0.024   2.384   0.002 -0.2610  0.3390  0.8341
  975SOL    HW1 3136   0.056   2.423  -0.079  0.3875 -0.7579  0.5333
  975SOL    HW2 3137  -0.071   2.396  -0.001 -0.5083 -1.4415 -1.1057
  976SOL     OW 3138   1.494   3.707   3.609  0.0530 -0.2356 -0.0155
  976SOL    HW1 3139   1.544   3.786   3.587 -0.2923  0.2817  0.9939
  976SOL    HW2 3140   1.541   3.670   3.684 -0.4165 -0.3827  0.2080
  977SOL     OW 3141   0.494   1.503   0.950 -0.2563 -0.2838  0.6112
  977SOL    HW1 3142   0.543   1.421   0.956 -1.8474 -1.2848  0.4165
  977SOL    HW2 3143   0.555   1.565   0.910  0.8957 -1.4225  0.5466
  978SOL     OW 3144   3.153   0.392   0.905  0.2926  0.8096 -0.3593
  978SOL    HW1 3145   3.082   0.365   0.847 -0.2925 -0.0278  0.6977
  978SOL    HW2 3146   3.224   0.417   0.846 -0.1548 -0.3442 -1.4401
  979SOL     OW 3147   1.599   3.296   1.392  0.2134 -0.3019  0.3358
  979SOL    HW1 3148   1.619   3.254   1.308  2.9338  1.3808  0.0080
  979SOL    HW2 3149   1.626   3.232   1.458 -0.0575 -0.8428 -0.0652
  980SOL     OW 3150   0.972   0.213   4.106 -0.3632 -0.3236  0.0578
  980SOL    HW1 3151   1.006   0.130   4.072 -1.3598 -1.0439  0.7346
  980SOL    HW2 3152   1.015   0.223   4.191  0.8348  0.5989 -0.6386
  981SOL     OW 3153   2.200   3.643   1.097 -0.1468  0.7739  0.2637
  981SOL    HW1 3154   2.233   3.555   1.114 -2.5206 -0.3318 -0.4225
  981SOL    HW2 3155   2.212   3.690   1.180  0.2526 -0.4932  0.9463
  982SOL     OW 3156   3.877   2.744   0.070  0.2222  0.1599 -0.9507
  982SOL    HW1 3157   3.810   2.761   0.136 -0.1244 -1.2788 -0.9023
  982SOL    HW2 3158   3.875   2.821   0.013 -0.6901  0.6342 -0.3028
  983SOL     OW 3159   2.562   3.256   0.518 -0.0590 -0.4304  0.2754
  983SOL    HW1 3160   2.630   3.294   0.462  0.6851  0.4711  1.7153
  983SOL    HW2 3161   2.492   3.321   0.518 -0.9396 -1.3364 -1.1660
  984SOL     OW 3162   2.376   1.336   4.115 -0.2113  0.6660  0.4750
  984SOL    HW1 3163   2.292   1.340   4.069 -0.0914  1.0132  0.2890
  984SOL    HW2 3164   2.440   1.316   4.047 -0.4642 -2.3132  0.9797
  985SOL     OW 3165   1.160   1.753   0.442 -0.0462 -0.2448 -0.2962
  985SOL    HW1 3166   1.170   1.668   0.486  0.8810 -0.2980 -0.5735
  985SOL    HW2 3167   1.166   1.817   0.513 -0.0752 -0.3858 -0.1646
  986SOL     OW 3168   3.947   0.349   2.630  0.2425  0.3873 -0.0090
  986SOL    HW1 3169   3.912   0.375   2.716  1.4742  2.6106 -0.1082
  986SOL    HW2 3170   3.963   0.432   2.585 -1.7594 -0.7185 -3.0423
  987SOL     OW 3171   1.284   3.750   3.953  0.3837 -0.2364  0.1073
  987SOL    HW1 3172   1.315   3.826   3.903  1.4976 -0.6826  0.0697
  987SOL    HW2 3173   1.238   3.787   4.028  0.7727  0.4790  0.0074
  988SOL     OW 3174   0.961   0.260   3.484  0.3467  0.1242  0.7238
  988SOL    HW1 3175   0.881   0.311   3.474  1.3155  1.7722  1.1203
  988SOL    HW2 3176   1.029   0.315   3.446  1.1700 -1.7314 -0.6599
  989SOL     OW 3177   0.554   4.056   0.799 -0.2169 -0.2431 -0.7401
  989SOL    HW1 3178   0.557   4.076   0.706  1.5635 -0.8178 -0.8265
  989SOL    HW2 3179   0.570   3.962   0.805  1.6373  0.0874  0.2200
  990SOL     OW 3180   2.044   2.101   1.002 -0.0578 -0.7288 -0.2440
  990SOL    HW1 3181   2.049   2.174   1.064  0.8450 -0.6803 -0.3676
  990SOL    HW2 3182   1.981   2.130   0.936  0.1801 -0.1165 -0.2097
  991SOL     OW 3183   1.204   3.593   3.680  0.2075 -0.1315 -0.1486
  991SOL    HW1 3184   1.279   3.635   3.638 -1.3004  4.8743  1.5629
  991SOL    HW2 3185   1.241   3.548   3.756  1.6214  0.8332 -0.2300
  992SOL     OW 3186   3.169   0.600   1.732  0.2274  0.1565 -0.2848
  992SOL    HW1 3187   3.227   0.535   1.692  0.7871  1.4543 -1.7116
  992SOL    HW2 3188   3.211   0.622   1.815 -0.2916 -1.6897  0.5126
  993SOL     OW 3189   1.329   3.121   2.624 -0.0671 -0.1595  0.1221
  993SOL    HW1 3190   1.329   3.185   2.552 -0.1942  0.3387  0.5582
  993SOL    HW2 3191   1.387   3.160   2.690  1.3480 -1.3677 -0.3597
  994SOL     OW 3192   1.530   2.883   0.989 -0.2393 -0.2189 -0.1870
  994SOL    HW1 3193   1.456   2.885   1.050  1.3968 -0.1602  1.9452
  994SOL    HW2 3194   1.606   2.902   1.044  1.3747 -0.2858 -2.2735
  995SOL     OW 3195   0.899   3.555   4.036  0.4959  0.9369 -0.0651
  995SOL    HW1 3196   0.963   3.566   4.106  0.1250  0.2842  0.3941
  995SOL    HW2 3197   0.931   3.481   3.985 -0.4618 -0.1432  0.8481
  996SOL     OW 3198   1.031   4.207   4.089 -0.1547  0.5416  0.0073
  996SOL    HW1 3199   0.942   4.171   4.092  0.5566 -1.2826  0.1963
  996SOL    HW2 3200   1.083   4.147   4.142  1.3759  1.0658 -0.8535
  997SOL     OW 3201   3.773   0.918   2.714 -0.4626 -0.4273 -0.5065
  997SOL    HW1 3202   3.721   0.994   2.740  0.1727 -0.0564 -0.2946
  997SOL    HW2 3203   3.832   0.903   2.788 -1.3173 -1.8119 -0.0613
  998SOL     OW 3204   0.773   1.460   1.439 -0.7670  0.4923  0.4690
  998SOL    HW1 3205   0.809   1.391   1.495  0.1687  1.9494  1.7724
  998SOL    HW2 3206   0.846   1.521   1.427 -1.2715  0.7577 -1.4867
  999SOL     OW 3207   2.809   0.921   2.729  0.3012 -0.1929 -0.4757
  999SOL    HW1 3208   2.887   0.959   2.689 -0.3239 -0.5065 -2.0680
  999SOL    HW2 3209   2.819   0.827   2.716 -0.3944 -0.2263 -0.7952
 1000SOL     OW 3210   3.851   1.158   3.498  0.2826 -0.3238  0.0543
 1000SOL    HW1 3211   3.773   1.124   3.456  1.6869 -1.7523 -1.5397
 1000SOL    HW2 3212   3.921   1.098   3.472  1.9464  0.9559  1.3256
 1001SOL     OW 3213   4.176   2.476   0.340  0.3522  0.4991 -0.0798
 1001SOL    HW1 3214   4.124   2.440   0.268 -1.6164  0.5594  1.2420
 1001SOL    HW2 3215   4.129   2.555   0.367  0.5008 -0.0250  1.8594
 1002SOL     OW 3216   0.540   2.326   0.425  0.4515 -0.0069  0.3848
 1002SOL    HW1 3217   0.548   2.237   0.457  0.0378 -0.7528 -1.4618
 1002SOL    HW2 3218   0.468   2.363   0.475 -0.9531 -1.5150 -0.4116
 1003SOL     OW 3219   1.377   3.328   4.164 -0.6517 -0.6485  0.2418
 1003SOL    HW1 3220   1.392   3.345   4.257 -2.9891  1.7109  0.3017
 1003SOL    HW2 3221   1.464   3.333   4.125  0.2095 -0.2682  2.0817
 1004SOL     OW 3222   2.738   2.811   0.160 -0.3603  0.0323 -0.4797
 1004SOL    HW1 3223   2.760   2.791   0.069 -1.6427 -0.4545 -0.7137
 1004SOL    HW2 3224   2.819   2.800   0.208  0.1383 -0.5875 -1.4369
 1005SOL     OW 3225   4.215   0.918   1.946  0.3569  0.1374 -0.5746
 1005SOL    HW1 3226   4.182   0.859   1.877  3.4658 -1.4088 -0.8931
 1005SOL    HW2 3227   4.251   0.992   1.898 -0.1856  0.5239 -0.3941
 1006SOL     OW 3228   0.176   2.397   1.155 -0.0315  0.5210 -0.0726
 1006SOL    HW1 3229   0.103   2.349   1.194 -0.6872 -0.0175 -1.8563
 1006SOL    HW2 3230   0.170   2.378   1.061  2.3186  0.5913 -0.3059
 1007SOL     OW 3231   4.092   4.150   3.544 -0.1799 -0.3664 -0.2941
 1007SOL    HW1 3232   4.095   4.141   3.449  2.0563  0.3803 -0.3686
 1007SOL    HW2 3233   4.180   4.124   3.573  0.1893  2.2477  1.2430
 1008SOL     OW 3234   2.431   0.542   3.726 -0.1196 -0.2509 -0.5882
 1008SOL    HW1 3235   2.416   0.459   3.770  0.3220 -0.6034 -1.0920
 1008SOL    HW2 3236   2.395   0.608   3.785 -2.5550 -0.9430 -1.2085
 1009SOL     OW 3237   3.099   3.919   1.434 -0.3637  0.6846 -0.3316
 1009SOL    HW1 3238   3.141   3.882   1.357  1.4772  2.8846 -0.4904
 1009SOL    HW2 3239   3.007   3.930   1.409 -0.6746 -2.1373 -0.7793
 1010SOL     OW 3240   0.906   1.136   0.364  0.2062 -0.5594  0.6299
 1010SOL    HW1 3241   0.888   1.044   0.382 -1.0781 -0.6532 -0.9284
 1010SOL    HW2 3242   0.887   1.181   0.446 -0.9564 -1.4799  0.8849
 1011SOL     OW 3243   0.028   0.297   2.596 -0.6622  0.0194  0.1853
 1011SOL    HW1 3244   0.090   0.278   2.667  1.4776  0.3803 -1.4988
 1011SOL    HW2 3245  -0.050   0.245   2.618  0.9188 -2.0095  1.4018
 1012SOL     OW 3246   0.721   3.097   0.746  0.1798  0.5273 -0.2626
 1012SOL    HW1 3247   0.647   3.102   0.685 -0.1655 -1.2076 -0.0465
 1012SOL    HW2 3248   0.686   3.048   0.821  1.7402 -0.9914 -0.4806
 1013SOL     OW 3249   0.453   3.340   2.498 -0.0170  0.0733  0.0177
 1013SOL    HW1 3250   0.363   3.309   2.483 -0.5785  1.5648  0.1193
 1013SOL    HW2 3251   0.490   3.277   2.559 -1.1030 -0.4132  0.1954
 1014SOL     OW 3252   0.818   4.024   0.365  0.0379 -0.1938 -0.2629
 1014SOL    HW1 3253   0.901   4.069   0.349  0.7546 -0.9220  1.2266
 1014SOL    HW2 3254   0.789   4.055   0.451 -2.3490  1.6269 -1.5859
 1015SOL     OW 3255   0.257   0.999   4.104  0.2822 -0.0481  0.0449
 1015SOL    HW1 3256   0.313   0.922   4.099  2.3281  1.3500  0.4759
 1015SOL    HW2 3257   0.294   1.060   4.040 -0.3805  1.1457  0.7713
 1016SOL     OW 3258   2.767   1.811   4.063  0.3102  0.6046  0.4764
 1016SOL    HW1 3259   2.792   1.838   3.975 -1.7784  1.2247  0.0035
 1016SOL    HW2 3260   2.751   1.716   4.055 -1.5003  0.9191 -0.3152
 1017SOL     OW 3261   1.389   0.144   2.808  0.1786 -0.7161 -0.4854
 1017SOL    HW1 3262   1.316   0.094   2.845 -0.8102 -0.0123 -1.4503
 1017SOL    HW2 3263   1.461   0.130   2.870 -1.3690  0.3208  1.6772
 1018SOL     OW 3264   3.713   1.257   3.952  0.1450 -0.7668 -0.2338
 1018SOL    HW1 3265   3.628   1.225   3.983 -0.5464 -0.5978 -1.8783
 1018SOL    HW2 3266   3.758   1.286   4.032 -1.1297 -1.3323  0.7216
 1019SOL     OW 3267   1.697   3.643   0.286 -0.6114  0.1661  0.7538
 1019SOL    HW1 3268   1.775   3.614   0.333 -0.5838 -1.0668 -0.0011
 1019SOL    HW2 3269   1.624   3.608   0.338 -0.5942 -0.7000  0.2080
 1020SOL     OW 3270   0.291   2.343   1.672 -0.1363  0.1384  0.0436
 1020SOL    HW1 3271   0.237   2.411   1.711  1.0955  0.6628  0.8951
 1020SOL    HW2 3272   0.347   2.312   1.743 -1.9890 -3.2195  0.2697
 1021SOL     OW 3273   2.259   1.251   1.420 -0.4267 -0.0286  0.0244
 1021SOL    HW1 3274   2.344   1.267   1.379 -1.0080  1.3970 -0.6904
 1021SOL    HW2 3275   2.245   1.157   1.412  1.1522 -0.3173  0.3132
 1022SOL     OW 3276   1.444   3.004   0.755 -0.7902  0.3399 -0.8226
 1022SOL    HW1 3277   1.365   3.041   0.794  0.0763 -0.2519  1.6864
 1022SOL    HW2 3278   1.492   2.967   0.829  0.0703 -2.6840 -2.7295
 1023SOL     OW 3279   2.144   0.450   3.369  0.3487  0.0654  0.5621
 1023SOL    HW1 3280   2.193   0.443   3.287  0.1680 -1.4639  0.5493
 1023SOL    HW2 3281   2.052   0.440   3.343  0.2164  0.5527  0.8432
 1024SOL     OW 3282   0.745   0.868   0.696 -0.2532  0.5059  0.2194
 1024SOL    HW1 3283   0.699   0.945   0.728  2.4061  2.3452 -0.1016
 1024SOL    HW2 3284   0.835   0.877   0.730  0.3770 -2.0385 -0.4977
 1025SOL     OW 3285   0.864   1.513   2.206 -0.1870 -0.0060 -0.2784
 1025SOL    HW1 3286   0.930   1.581   2.209 -0.7566  0.6037 -0.8959
 1025SOL    HW2 3287   0.782   1.558   2.228 -0.2910 -0.9058  1.2500
 1026SOL     OW 3288   1.323   4.085   0.489 -0.4336 -0.4964 -0.2108
 1026SOL    HW1 3289   1.236   4.069   0.525 -0.4488 -0.2130 -0.1170
 1026SOL    HW2 3290   1.359   3.998   0.474 -0.6614 -0.6159 -0.0719
 1027SOL     OW 3291   1.535   1.224   1.189 -0.6403  0.4120  0.3885
 1027SOL    HW1 3292   1.617   1.212   1.142 -0.9066  0.0155  0.0249
 1027SOL    HW2 3293   1.482   1.281   1.134 -1.8069 -1.7548 -0.8943
 1028SOL     OW 3294   0.461   3.866   1.291 -0.6616  0.1875 -0.1199
 1028SOL    HW1 3295   0.448   3.772   1.307  0.6589  0.0287  0.1150
 1028SOL    HW2 3296   0.527   3.870   1.222 -1.5169  0.9516 -0.9161
 1029SOL     OW 3297   1.024   3.291   3.982 -0.3696 -0.2014 -0.0748
 1029SOL    HW1 3298   1.059   3.231   4.049 -1.3841  0.0414  0.7001
 1029SOL    HW2 3299   1.070   3.266   3.902  2.1044  0.5559  0.9954
 1030SOL     OW 3300   4.166   3.469   0.597  0.3516 -0.3440 -0.3961
 1030SOL    HW1 3301   4.093   3.519   0.633 -0.7403 -1.9641 -0.2427
 1030SOL    HW2 3302   4.206   3.527   0.532 -0.3511  1.0015  0.3478
 1031SOL     OW 3303   1.531   3.908   4.027  0.0396 -0.0102 -0.2981
 1031SOL    HW1 3304   1.518   3.913   3.932 -0.0421  3.1190 -0.2295
 1031SOL    HW2 3305   1.502   3.993   4.060  2.8402  0.1614  2.1769
 1032SOL     OW 3306   0.903   0.855   1.652 -0.5047  0.3384 -0.3192
 1032SOL    HW1 3307   0.955   0.933   1.628  0.2539 -0.1145 -0.1828
 1032SOL    HW2 3308   0.965   0.782   1.643 -1.7194 -0.5369 -2.4328
 1033SOL     OW 3309   3.167   2.967   4.153  0.1025  0.6773  0.0057
 1033SOL    HW1 3310   3.247   2.924   4.123  0.2779  1.2324 -0.3379
 1033SOL    HW2 3311   3.162   2.946   4.246  0.0615 -0.2725 -0.2097
 1034SOL     OW 3312   3.299   3.974   3.995 -0.2785  0.1739 -0.0557
 1034SOL    HW1 3313   3.344   3.997   3.914 -0.0006  0.2467  0.1159
 1034SOL    HW2 3314   3.342   3.893   4.024  0.5047  0.8342  0.6833
 1035SOL     OW 3315   1.710   1.440   1.280  0.0710  0.2005  0.5237
 1035SOL    HW1 3316   1.704   1.438   1.185  2.0814  0.4383  0.3621
 1035SOL    HW2 3317   1.737   1.351   1.304  1.5138  0.6649  0.6868
 1036SOL     OW 3318   3.964   2.108   4.195 -0.3444 -0.0406  0.2161
 1036SOL    HW1 3319   4.005   2.033   4.236 -0.2480  0.2976  0.7485
 1036SOL    HW2 3320   3.878   2.116   4.238 -0.1307  0.4796  0.5508
 1037SOL     OW 3321   0.125   1.599   2.349  0.0499 -0.0358  0.1482
 1037SOL    HW1 3322   0.076   1.522   2.377 -0.2451 -0.6411 -1.8737
 1037SOL    HW2 3323   0.069   1.673   2.373 -0.3886 -0.5368  0.6989
 1038SOL     OW 3324   0.729   2.932   0.319  0.0894 -0.0383  0.3229
 1038SOL    HW1 3325   0.715   2.991   0.245 -0.6271 -0.1144  0.3839
 1038SOL    HW2 3326   0.805   2.879   0.295  1.8952  2.1134  1.0440
 1039SOL     OW 3327   1.222   0.668   3.427  0.0885  0.4779 -0.2507
 1039SOL    HW1 3328   1.205   0.638   3.516  1.4343 -0.1090 -0.1635
 1039SOL    HW2 3329   1.195   0.760   3.426 -0.4589  0.3352  0.5910
 1040SOL     OW 3330   3.357   2.003   1.748  0.0630 -0.0465 -0.0392
 1040SOL    HW1 3331   3.378   2.052   1.668  2.6022  1.2573  1.3098
 1040SOL    HW2 3332   3.321   1.920   1.716  1.2203  0.3237 -2.5517
 1041SOL     OW 3333   2.326   4.026   0.585 -0.0169 -0.6250  0.0921
 1041SOL    HW1 3334   2.325   4.057   0.675 -0.6503 -1.7249  0.4908
 1041SOL    HW2 3335   2.379   4.090   0.537 -0.3469  0.4064  1.0768
 1042SOL     OW 3336   0.824   0.059   2.708  0.8814  0.1328  0.2476
 1042SOL    HW1 3337   0.906   0.031   2.749  1.0922  0.0347 -0.2437
 1042SOL    HW2 3338   0.785  -0.021   2.674 -0.4154 -0.1475  2.2265
 1043SOL     OW 3339   3.425   0.506   2.498  0.2244  0.0045  0.3568
 1043SOL    HW1 3340   3.439   0.560   2.420 -0.9095  1.6405  1.2198
 1043SOL    HW2 3341   3.372   0.433   2.468  2.3773 -1.1174 -0.9935
 1044SOL     OW 3342   3.000   0.615   3.613  0.5454 -0.6509  0.2299
 1044SOL    HW1 3343   3.036   0.594   3.527 -0.1163 -1.1298  0.0695
 1044SOL    HW2 3344   2.971   0.706   3.605  0.9095 -0.5451  0.0935
 1045SOL     OW 3345   2.831   0.598   4.142 -0.5664 -0.4730  0.2387
 1045SOL    HW1 3346   2.766   0.605   4.073  2.2288  3.2340 -2.4094
 1045SOL    HW2 3347   2.891   0.530   4.111  0.6871  1.1882 -1.1970
 1046SOL     OW 3348   1.648   0.149   1.141  0.0200  0.8601 -0.2488
 1046SOL    HW1 3349   1.611   0.100   1.068  0.3926  0.0136  0.1231
 1046SOL    HW2 3350   1.740   0.159   1.119 -0.0418  1.3449 -0.2929
 1047SOL     OW 3351   3.627   1.672   3.248  0.6246  0.2435 -0.4352
 1047SOL    HW1 3352   3.568   1.695   3.176  1.2246 -0.3443 -1.1338
 1047SOL    HW2 3353   3.640   1.577   3.239  1.1326  0.2553  0.1134
 1048SOL     OW 3354   1.778   3.835   1.695  0.2921 -0.1100  0.7117
 1048SOL    HW1 3355   1.802   3.885   1.773  0.7672  0.9401 -0.0805
 1048SOL    HW2 3356   1.707   3.778   1.725  0.9628 -0.2803  2.0832
 1049SOL     OW 3357   4.201   2.909   3.020 -0.1762 -0.0727 -0.0174
 1049SOL    HW1 3358   4.109   2.911   2.991 -0.3886 -0.8253  0.5764
 1049SOL    HW2 3359   4.251   2.918   2.939 -0.7584  1.5129 -0.2520
 1050SOL     OW 3360   0.599   1.611   1.332 -0.1886  0.2634 -0.8858
 1050SOL    HW1 3361   0.612   1.700   1.365 -3.3775  0.1371  1.1179
 1050SOL    HW2 3362   0.671   1.561   1.371 -0.4452  1.3063  1.0742
 1051SOL     OW 3363   0.521   1.831   1.089  0.2731 -0.6939  0.7756
 1051SOL    HW1 3364   0.549   1.748   1.127 -0.1338 -0.0493  2.5800
 1051SOL    HW2 3365   0.595   1.890   1.101 -0.7681  0.2460  3.0484
 1052SOL     OW 3366   2.548   0.904   1.838  0.2094  0.2994 -0.4825
 1052SOL    HW1 3367   2.465   0.867   1.809  0.1316  0.8764 -1.0265
 1052SOL    HW2 3368   2.545   0.897   1.933 -1.0547  1.4862 -0.3838
 1053SOL     OW 3369   0.232   3.160   2.883  0.4832 -0.4925 -0.5480
 1053SOL    HW1 3370   0.231   3.181   2.790 -0.3046 -2.4242 -1.0237
 1053SOL    HW2 3371   0.179   3.080   2.890 -2.6293  1.5172  2.0246
 1054SOL     OW 3372   2.233   2.280   0.844 -0.0108 -0.3362 -0.1644
 1054SOL    HW1 3373   2.250   2.188   0.826 -0.6947 -0.3420 -0.8065
 1054SOL    HW2 3374   2.251   2.324   0.761 -0.0824  0.0554  0.0263
 1055SOL     OW 3375   0.524   4.258   4.044 -0.1685 -0.3710  0.9896
 1055SOL    HW1 3376   0.576   4.286   4.119  0.1101 -0.7314  0.9330
 1055SOL    HW2 3377   0.522   4.162   4.050  1.0919 -0.5068 -0.2668
 1056SOL     OW 3378   3.371   1.639   3.463  0.0273 -0.5686  0.0520
 1056SOL    HW1 3379   3.363   1.698   3.387  3.3909 -0.7394 -0.5589
 1056SOL    HW2 3380   3.419   1.689   3.528 -0.8305 -1.2268  1.2388
 1057SOL     OW 3381   2.462   1.853   0.537 -1.0372  0.3676 -0.6783
 1057SOL    HW1 3382   2.384   1.903   0.514 -2.1243 -0.6949  0.5426
 1057SOL    HW2 3383   2.511   1.846   0.456 -3.5071 -1.1554 -2.1667
 1058SOL     OW 3384   3.231   3.140   1.813 -0.5154 -0.3548  0.2602
 1058SOL    HW1 3385   3.283   3.216   1.842 -1.6069 -0.1889  1.9495
 1058SOL    HW2 3386   3.251   3.072   1.877  1.2355 -1.9118 -1.8142
 1059SOL     OW 3387   2.866   1.478   1.543  0.0546 -0.3892 -0.1208
 1059SOL    HW1 3388   2.926   1.444   1.609  1.1294 -0.4771 -1.1263
 1059SOL    HW2 3389   2.918   1.486   1.463 -0.8135  1.1989 -0.5803
 1060SOL     OW 3390   2.446   2.876   2.588  0.0923 -0.2605 -0.2490
 1060SOL    HW1 3391   2.502   2.884   2.665  1.9867  0.6832 -1.6519
 1060SOL    HW2 3392   2.373   2.936   2.605  2.1417  2.4839 -0.5102
 1061SOL     OW 3393   1.572   1.738   3.977 -0.2115  0.3023  0.1317
 1061SOL    HW1 3394   1.588   1.665   4.037 -1.6910 -1.1060 -1.1012
 1061SOL    HW2 3395   1.535   1.807   4.032  0.3507 -0.2009  1.1642
 1062SOL     OW 3396   1.718   2.676   1.503  0.3783  0.4337  0.3416
 1062SOL    HW1 3397   1.684   2.632   1.425 -1.5750  1.0231  0.8087
 1062SOL    HW2 3398   1.763   2.607   1.552  1.9984  0.1398 -1.4584
 1063SOL     OW 3399   3.357   3.903   3.474  0.1115  0.0468  0.3096
 1063SOL    HW1 3400   3.406   3.820   3.477  1.7433  0.9779  0.7601
 1063SOL    HW2 3401   3.365   3.932   3.383 -1.5341 -0.8575 -0.1662
 1064SOL     OW 3402   0.796   3.382   1.210  0.1811  0.4791  0.5751
 1064SOL    HW1 3403   0.867   3.423   1.162  0.1933 -0.1502  0.0374
 1064SOL    HW2 3404   0.763   3.314   1.151 -2.0421  1.9035  0.0402
 1065SOL     OW 3405   1.154   2.695   2.218 -0.4205  0.2533 -0.2576
 1065SOL    HW1 3406   1.198   2.772   2.253 -1.2620  0.3615  0.6005
 1065SOL    HW2 3407   1.133   2.720   2.127  0.6724  0.4346 -0.4777
 1066SOL     OW 3408   0.195   3.068   1.939 -0.4600  0.9116 -0.1902
 1066SOL    HW1 3409   0.143   3.140   1.975 -1.6281 -0.2869  0.5891
 1066SOL    HW2 3410   0.285   3.085   1.969 -1.1305  0.7699  2.0581
 1067SOL     OW 3411   2.795   3.600   1.413 -0.2502 -0.5578  0.2305
 1067SOL    HW1 3412   2.727   3.561   1.358 -0.1104  0.0051 -0.3462
 1067SOL    HW2 3413   2.784   3.557   1.498 -1.1864 -0.6311  0.0807
 1068SOL     OW 3414   0.272   3.515   1.626 -0.7342  0.1107  0.0665
 1068SOL    HW1 3415   0.235   3.598   1.597  0.0401  0.2392 -0.5699
 1068SOL    HW2 3416   0.355   3.537   1.667  0.1509 -0.4554 -1.3529
 1069SOL     OW 3417   0.131   3.383   1.412 -0.2992 -0.2331  0.4075
 1069SOL    HW1 3418   0.055   3.327   1.428  0.2122 -1.3744 -0.9348
 1069SOL    HW2 3419   0.204   3.338   1.456  0.2047 -0.8994 -1.0625
 1070SOL     OW 3420   1.275   1.638   0.048  0.2018  0.1347  0.1938
 1070SOL    HW1 3421   1.294   1.545   0.036  0.6293  0.1374  0.8334
 1070SOL    HW2 3422   1.347   1.670   0.103 -0.7347  0.5137  1.2292
 1071SOL     OW 3423   1.362   2.842   0.516  0.1087 -0.4622 -0.3284
 1071SOL    HW1 3424   1.390   2.927   0.551  2.0559 -1.2222  0.0762
 1071SOL    HW2 3425   1.398   2.778   0.578 -1.5321 -1.5918 -0.4993
 1072SOL     OW 3426   3.525   2.945   1.499  0.1580 -0.1045 -0.4485
 1072SOL    HW1 3427   3.480   3.022   1.535  0.3268 -1.2088  2.3915
 1072SOL    HW2 3428   3.616   2.958   1.523  0.1343 -1.3286  0.3414
 1073SOL     OW 3429   0.310   4.078   1.384 -0.5427  0.3780 -0.0236
 1073SOL    HW1 3430   0.252   4.033   1.447  1.5852  0.5549  2.2208
 1073SOL    HW2 3431   0.368   4.009   1.353  0.7265  0.9209  1.0443
 1074SOL     OW 3432   2.587   3.279   0.791 -0.4014 -0.7711  0.4446
 1074SOL    HW1 3433   2.520   3.339   0.824 -1.0643 -1.3062  0.1064
 1074SOL    HW2 3434   2.561   3.261   0.701  0.8751 -0.0430 -0.0962
 1075SOL     OW 3435   0.588   1.299   1.969 -0.1756 -0.6542 -0.0380
 1075SOL    HW1 3436   0.500   1.263   1.955 -0.9445  1.2138 -0.2241
 1075SOL    HW2 3437   0.595   1.308   2.064 -1.8979  3.0259 -0.1030
 1076SOL     OW 3438   3.830   0.227   1.455 -0.3613  0.4436 -0.0028
 1076SOL    HW1 3439   3.871   0.148   1.490 -0.6024  0.4150  0.2091
 1076SOL    HW2 3440   3.792   0.270   1.531 -2.3476 -0.4620 -0.4263
 1077SOL     OW 3441   0.865   3.742   0.343  0.1884 -0.5261 -0.1756
 1077SOL    HW1 3442   0.805   3.730   0.269 -0.7746 -0.1662  0.5201
 1077SOL    HW2 3443   0.862   3.837   0.360 -1.5987 -0.8946  1.9189
 1078SOL     OW 3444   0.146   1.232   2.277 -0.2206  0.1107  0.1764
 1078SOL    HW1 3445   0.144   1.270   2.365  0.0350 -0.4474  0.4272
 1078SOL    HW2 3446   0.117   1.141   2.289  0.8996 -0.3046 -0.1336
 1079SOL     OW 3447   2.879   3.226   3.783 -0.2611 -1.0222  0.1250
 1079SOL    HW1 3448   2.906   3.135   3.774  0.4612 -0.8457  0.4445
 1079SOL    HW2 3449   2.943   3.276   3.733 -0.6836 -0.6869 -0.0937
 1080SOL     OW 3450   2.517   1.184   0.957  0.2883 -0.3665  0.0182
 1080SOL    HW1 3451   2.592   1.222   1.002  1.8731 -3.1695 -0.0116
 1080SOL    HW2 3452   2.463   1.149   1.028  0.3898 -0.6685 -0.0505
 1081SOL     OW 3453   1.105   3.023   2.485  0.3759  0.0795  0.0440
 1081SOL    HW1 3454   1.175   3.038   2.548  2.0219 -1.0795 -1.4007
 1081SOL    HW2 3455   1.150   3.000   2.404 -1.6545  1.1648 -1.4919
 1082SOL     OW 3456   2.887   3.303   1.309  0.0751 -0.0581 -0.4674
 1082SOL    HW1 3457   2.798   3.333   1.290 -1.2292 -2.4903  1.1960
 1082SOL    HW2 3458   2.903   3.234   1.243  0.1876 -0.5054  0.0214
 1083SOL     OW 3459   3.257   1.916   4.090  0.6583 -0.1539 -0.0490
 1083SOL    HW1 3460   3.229   1.841   4.142  2.1240 -0.6723  0.0152
 1083SOL    HW2 3461   3.216   1.902   4.004  0.6863 -0.8664  0.0483
 1084SOL     OW 3462   0.951   0.679   3.014  0.3767  0.7106  0.0542
 1084SOL    HW1 3463   0.922   0.611   3.074  2.9586 -1.0139 -0.5075
 1084SOL    HW2 3464   1.026   0.719   3.057 -0.4312  2.5258 -0.1249
 1085SOL     OW 3465   1.934   4.255   1.073 -0.0114 -0.2330  0.4103
 1085SOL    HW1 3466   2.002   4.241   1.007 -1.3496 -0.4554 -0.9991
 1085SOL    HW2 3467   1.897   4.169   1.088 -2.1226  0.2709 -1.3443
 1086SOL     OW 3468   1.421   0.376   3.510  0.7196 -0.3814 -0.0630
 1086SOL    HW1 3469   1.383   0.443   3.454  2.7122 -0.2298 -1.3295
 1086SOL    HW2 3470   1.420   0.414   3.598 -0.1181  0.4341 -0.4132
 1087SOL     OW 3471   1.753   1.596   3.725 -0.0156 -0.2827 -0.6417
 1087SOL    HW1 3472   1.784   1.675   3.769 -0.4394 -0.3438 -0.2352
 1087SOL    HW2 3473   1.776   1.610   3.633  0.9534 -0.1940 -0.3992
 1088SOL     OW 3474   0.776   2.596   1.972 -0.1603 -0.0986  0.3600
 1088SOL    HW1 3475   0.730   2.668   1.931 -0.9629 -0.5514  0.4470
 1088SOL    HW2 3476   0.861   2.592   1.926 -0.0093  1.0431  0.5339
 1089SOL     OW 3477   4.276   0.142   2.939  0.2543 -0.2346 -0.3764
 1089SOL    HW1 3478   4.214   0.113   2.873 -0.5672  0.1959  0.1961
 1089SOL    HW2 3479   4.358   0.156   2.891  0.3725 -2.2899 -0.8945
 1090SOL     OW 3480   0.332   3.977   2.900  0.1543 -0.1088 -0.1067
 1090SOL    HW1 3481   0.343   3.919   2.974  3.3214  0.5066  0.0435
 1090SOL    HW2 3482   0.354   4.064   2.934  0.0258  0.4535 -1.3864
 1091SOL     OW 3483   2.077   4.112   3.808 -0.1151 -0.4791 -0.2197
 1091SOL    HW1 3484   2.108   4.138   3.895  0.3181  0.1829 -0.5706
 1091SOL    HW2 3485   2.155   4.078   3.764 -0.3014 -0.6666 -0.4079
 1092SOL     OW 3486   1.072   4.031   2.388  0.0174  0.2333 -0.5478
 1092SOL    HW1 3487   0.997   3.977   2.362 -0.2814  0.0317  0.6500
 1092SOL    HW2 3488   1.143   4.003   2.330 -0.4783 -0.5390 -0.8013
 1093SOL     OW 3489   3.807   3.249   0.026 -0.0009 -0.0210  0.4049
 1093SOL    HW1 3490   3.883   3.248  -0.032 -0.7287 -0.9945 -0.5964
 1093SOL    HW2 3491   3.761   3.330   0.004 -0.5934 -0.6627 -0.8872
 1094SOL     OW 3492   0.722   3.413   1.467 -0.6746  0.7931  0.0136
 1094SOL    HW1 3493   0.783   3.423   1.394  1.1647 -0.3173  1.3181
 1094SOL    HW2 3494   0.656   3.352   1.436 -0.6445  1.3253 -1.1347
 1095SOL     OW 3495   0.129   0.383   0.516 -0.1195 -0.0477  0.0562
 1095SOL    HW1 3496   0.201   0.359   0.573 -0.0043 -0.4102 -0.2410
 1095SOL    HW2 3497   0.135   0.323   0.442 -1.7251 -1.2218  0.8131
 1096SOL     OW 3498   3.114   3.183   3.054 -0.0404  0.2017  0.2410
 1096SOL    HW1 3499   3.049   3.174   3.123 -1.6372  0.7883 -1.1205
 1096SOL    HW2 3500   3.068   3.155   2.974  2.0504 -1.4702 -0.4668
 1097SOL     OW 3501   1.859   3.646   2.689  0.7912 -0.2043 -0.2712
 1097SOL    HW1 3502   1.933   3.698   2.722  0.6997 -0.4225  0.2733
 1097SOL    HW2 3503   1.878   3.557   2.717 -0.0573 -0.1427  0.5320
 1098SOL     OW 3504   1.564   2.322   3.624  0.0591  0.0782 -0.2612
 1098SOL    HW1 3505   1.592   2.331   3.715  1.7082 -2.0192 -0.4825
 1098SOL    HW2 3506   1.514   2.240   3.622 -0.5092  0.4248 -1.1551
 1099SOL     OW 3507   0.562   1.217   2.510  0.1017  0.0883 -0.0329
 1099SOL    HW1 3508   0.489   1.244   2.567 -0.6750 -1.9883  0.0215
 1099SOL    HW2 3509   0.535   1.245   2.423 -0.2933  0.2147  0.1239
 1100SOL     OW 3510   0.406   3.770   3.590  0.3611  0.1022 -0.3755
 1100SOL    HW1 3511   0.325   3.820   3.604 -0.0512 -1.1713  2.4757
 1100SOL    HW2 3512   0.476   3.834   3.604 -0.0293  1.2626 -3.0421
 1101SOL     OW 3513   2.272   0.614   3.963 -0.1332 -0.0478  0.3293
 1101SOL    HW1 3514   2.181   0.605   3.934 -0.3384 -0.3385  1.0487
 1101SOL    HW2 3515   2.271   0.586   4.054  0.8732 -1.0520  0.0498
 1102SOL     OW 3516   0.936   3.836   2.698 -0.6989 -0.0729 -0.5438
 1102SOL    HW1 3517   0.885   3.878   2.767 -2.0542 -0.7364 -1.0994
 1102SOL    HW2 3518   0.879   3.839   2.622  1.2436  1.8027 -2.0604
 1103SOL     OW 3519   1.901   1.684   2.937  0.3058  0.2456 -0.4532
 1103SOL    HW1 3520   1.814   1.657   2.965 -0.4155  1.4724 -1.4054
 1103SOL    HW2 3521   1.921   1.631   2.861  1.1879 -1.2959  0.7948
 1104SOL     OW 3522   3.315   4.249   4.153 -0.0394 -0.4462 -0.2936
 1104SOL    HW1 3523   3.332   4.168   4.105  0.0751 -0.5836 -0.0238
 1104SOL    HW2 3524   3.368   4.242   4.232 -0.2032 -0.2076 -0.1593
 1105SOL     OW 3525   4.194   0.196   1.496 -0.1503 -0.2022 -0.0466
 1105SOL    HW1 3526   4.202   0.139   1.420 -1.6998 -0.5783  0.0408
 1105SOL    HW2 3527   4.258   0.265   1.481  0.1829 -0.7447 -1.2488
 1106SOL     OW 3528   4.071   2.691   3.809 -0.2573 -0.2163  0.0032
 1106SOL    HW1 3529   4.039   2.779   3.826 -1.5109 -0.9101  1.5100
 1106SOL    HW2 3530   4.160   2.690   3.845  0.0144  0.6058 -0.6231
 1107SOL     OW 3531   0.113   3.138   2.596 -0.3206  0.2555  0.0364
 1107SOL    HW1 3532   0.125   3.230   2.570  1.0827  0.2638  0.6481
 1107SOL    HW2 3533   0.107   3.091   2.513 -0.0665  0.7853 -0.2899
 1108SOL     OW 3534   0.746   2.242   0.932  0.2311 -0.3195 -0.6008
 1108SOL    HW1 3535   0.700   2.244   1.016 -1.8815 -1.5236 -1.6385
 1108SOL    HW2 3536   0.806   2.167   0.939  0.4457 -0.0876  0.0191
 1109SOL     OW 3537   1.522   3.077   0.517 -0.0498 -0.8024 -0.1951
 1109SOL    HW1 3538   1.588   3.146   0.523 -0.6337 -0.0506 -1.7584
 1109SOL    HW2 3539   1.492   3.064   0.606  1.5594 -0.5301  0.4188
 1110SOL     OW 3540   2.975   1.517   3.955 -0.0329 -0.0760  0.0303
 1110SOL    HW1 3541   3.020   1.529   3.871  1.8663  0.9202  1.1242
 1110SOL    HW2 3542   2.997   1.595   4.005 -2.4158  0.0695  0.9459
 1111SOL     OW 3543   3.936   1.534   1.038 -0.1043  0.1066  0.2189
 1111SOL    HW1 3544   3.989   1.455   1.029  0.3488  0.1661  1.9370
 1111SOL    HW2 3545   3.858   1.517   0.986  1.2280 -0.2872 -1.7737
 1112SOL     OW 3546   0.448   0.463   0.593  0.3516 -0.2145  0.4186
 1112SOL    HW1 3547   0.485   0.521   0.659 -0.1568  0.2422  0.3099
 1112SOL    HW2 3548   0.471   0.504   0.510  0.9335 -0.7534  0.3073
 1113SOL     OW 3549   1.771   0.239   0.266  0.4050  0.2900 -0.5258
 1113SOL    HW1 3550   1.762   0.288   0.184 -0.3464  1.6555  0.3128
 1113SOL    HW2 3551   1.682   0.208   0.284  0.3294  0.9729  0.3225
 1114SOL     OW 3552   1.660   3.805   0.542  0.0364 -0.9611  0.1437
 1114SOL    HW1 3553   1.644   3.855   0.623  1.7176  0.7189 -0.5082
 1114SOL    HW2 3554   1.749   3.773   0.551  0.7893  0.4651 -1.6023
 1115SOL     OW 3555   0.137   0.999   0.422 -0.0478  0.1315 -0.5087
 1115SOL    HW1 3556   0.211   1.059   0.429  0.3740 -0.5663  1.9956
 1115SOL    HW2 3557   0.099   0.998   0.510 -1.8434 -1.0314 -1.2401
 1116SOL     OW 3558   3.438   1.728   4.262  0.3004 -0.4328  0.2117
 1116SOL    HW1 3559   3.439   1.784   4.185  0.5301 -1.0503 -0.2342
 1116SOL    HW2 3560   3.345   1.713   4.280  0.2093  0.6468  0.7539
 1117SOL     OW 3561   0.346   3.273   3.719 -0.4340 -0.3699  0.4914
 1117SOL    HW1 3562   0.403   3.246   3.647  0.7945  1.6488  0.6451
 1117SOL    HW2 3563   0.308   3.356   3.690  0.0276  0.4471  2.1258
 1118SOL     OW 3564   2.353   0.136   2.545 -0.1340 -0.2845 -0.1532
 1118SOL    HW1 3565   2.369   0.180   2.462 -1.3929 -1.4706 -1.0733
 1118SOL    HW2 3566   2.258   0.141   2.557  0.0286 -0.1320  1.2240
 1119SOL     OW 3567   1.759   1.745   1.271 -0.4094  0.5183  0.0059
 1119SOL    HW1 3568   1.787   1.748   1.362  0.9813 -0.0861 -0.3737
 1119SOL    HW2 3569   1.813   1.677   1.231 -1.5637  0.2005 -1.0954
 1120SOL     OW 3570   3.341   2.216   0.433 -0.2402 -0.5919  0.2098
 1120SOL    HW1 3571   3.265   2.274   0.423  0.6639  0.4693 -0.9499
 1120SOL    HW2 3572   3.378   2.211   0.344  1.5678 -0.3178  0.9062
 1121SOL     OW 3573   1.187   0.912   1.436  0.1267  0.4851  0.2885
 1121SOL    HW1 3574   1.205   0.887   1.526  0.2272  0.8274  0.3631
 1121SOL    HW2 3575   1.234   0.994   1.424  0.5057  0.2013 -0.2182
 1122SOL     OW 3576   0.013   2.952   3.668 -0.0940 -0.0188  0.1400
 1122SOL    HW1 3577   0.088   2.968   3.725 -1.0461 -1.1754  1.8217
 1122SOL    HW2 3578   0.026   3.011   3.593  0.1576  3.1463  2.4810
 1123SOL     OW 3579   4.013   0.081   3.334  0.1735  0.1431  0.6462
 1123SOL    HW1 3580   4.038   0.058   3.423 -0.1386  0.5474  0.8405
 1123SOL    HW2 3581   4.089   0.057   3.281  0.3237 -0.1881  1.0034
 1124SOL     OW 3582   1.134   3.144   1.501  0.3398 -0.7903 -0.2882
 1124SOL    HW1 3583   1.147   3.053   1.528 -2.8032 -1.0041  0.9426
 1124SOL    HW2 3584   1.060   3.140   1.441 -0.5790  1.0151  0.6476
 1125SOL     OW 3585   0.121   0.821   2.987 -0.6551 -0.3506 -0.0862
 1125SOL    HW1 3586   0.067   0.889   2.946 -0.5940 -0.2098  0.0641
 1125SOL    HW2 3587   0.108   0.834   3.081 -1.5969 -1.3190 -0.0713
 1126SOL     OW 3588   0.303   4.114   0.765  0.0710  0.3253  0.1281
 1126SOL    HW1 3589   0.391   4.124   0.800 -0.3626  0.9832  1.0931
 1126SOL    HW2 3590   0.300   4.025   0.731  1.9505  1.1337 -2.4152
 1127SOL     OW 3591   0.814   3.700   1.862 -0.9725 -0.3221 -0.0597
 1127SOL    HW1 3592   0.736   3.661   1.822 -0.7983 -0.3077 -0.4182
 1127SOL    HW2 3593   0.886   3.671   1.807 -0.7630 -0.0474  0.0676
 1128SOL     OW 3594   0.293   3.357   3.052 -0.3862 -0.2611  0.6573
 1128SOL    HW1 3595   0.273   3.294   2.983 -0.9396  1.3412 -0.7213
 1128SOL    HW2 3596   0.370   3.321   3.096  0.0054 -1.3207 -0.8102
 1129SOL     OW 3597   3.165   4.204   0.154  0.2626  0.5570  0.3886
 1129SOL    HW1 3598   3.242   4.262   0.154  0.2634  0.6021  2.0823
 1129SOL    HW2 3599   3.189   4.132   0.213  0.5882 -1.7010 -2.3030
 1130SOL     OW 3600   2.746   0.436   1.535 -0.0241  0.1066 -0.0347
 1130SOL    HW1 3601   2.674   0.374   1.537 -0.2329  0.3677  1.1728
 1130SOL    HW2 3602   2.704   0.522   1.537  0.2721  0.3108 -1.3531
 1131SOL     OW 3603   0.522   3.002   2.877 -0.2660 -0.0163  0.1058
 1131SOL    HW1 3604   0.601   2.961   2.910 -1.3292  0.2813  3.3045
 1131SOL    HW2 3605   0.481   3.041   2.954 -2.4840  1.6325 -1.7748
 1132SOL     OW 3606   2.072   4.070   2.828 -0.5030 -0.0058 -0.3133
 1132SOL    HW1 3607   2.159   4.095   2.857 -0.5470  1.4894 -1.3870
 1132SOL    HW2 3608   2.033   4.026   2.904  1.3637 -1.2667 -0.0063
 1133SOL     OW 3609   2.755   3.720   0.241 -0.5416  0.7004 -0.9261
 1133SOL    HW1 3610   2.720   3.717   0.331  1.9651 -1.3719  0.0878
 1133SOL    HW2 3611   2.790   3.809   0.233  0.1569  0.6003  0.5786
 1134SOL     OW 3612   2.907   0.055   0.626 -0.0061  0.0413 -0.6721
 1134SOL    HW1 3613   2.872   0.141   0.648 -0.2016 -0.2555  0.2027
 1134SOL    HW2 3614   2.999   0.058   0.651 -0.0648 -0.0771 -0.4438
 1135SOL     OW 3615   3.072   3.311   2.102 -0.5810 -0.4797 -0.1206
 1135SOL    HW1 3616   3.164   3.308   2.077 -1.0883 -0.7211 -2.0969
 1135SOL    HW2 3617   3.054   3.225   2.140 -0.3124 -0.9575 -1.0420
 1136SOL     OW 3618   3.862   2.778   3.975 -0.3295 -0.2644  0.6805
 1136SOL    HW1 3619   3.948   2.741   3.997  0.3482  0.2725 -0.9004
 1136SOL    HW2 3620   3.814   2.706   3.935  0.0413 -0.1229 -0.0337
 1137SOL     OW 3621   2.933   2.951   3.574 -0.6286 -0.1776 -0.5806
 1137SOL    HW1 3622   3.000   3.019   3.578 -3.6985  3.0879  1.1343
 1137SOL    HW2 3623   2.960   2.886   3.639  1.4928  0.2835 -0.9400
 1138SOL     OW 3624   1.474   3.882   2.702 -0.2644  0.6387  0.0547
 1138SOL    HW1 3625   1.423   3.818   2.751 -0.1962  0.2778 -0.3331
 1138SOL    HW2 3626   1.439   3.967   2.729 -1.3013  0.3904 -0.4533
 1139SOL     OW 3627   3.522   2.012   3.673 -0.1511 -0.4805 -0.1978
 1139SOL    HW1 3628   3.435   1.977   3.687 -0.0187 -1.1820 -1.0476
 1139SOL    HW2 3629   3.564   1.950   3.614 -0.3558  1.6843 -2.8428
 1140SOL     OW 3630   4.078   2.056   0.396 -0.3795  0.4593 -0.2535
 1140SOL    HW1 3631   4.123   2.112   0.333 -0.2217  0.8402  0.1944
 1140SOL    HW2 3632   4.137   1.981   0.408 -0.1637  0.6420 -0.1628
 1141SOL     OW 3633   2.040   2.028   0.185 -0.3034 -0.8195 -0.1980
 1141SOL    HW1 3634   2.040   1.978   0.267 -1.1476 -0.1374  0.2324
 1141SOL    HW2 3635   1.997   1.970   0.122  0.2940 -1.3235 -0.1551
 1142SOL     OW 3636   0.036   3.855   0.339 -0.7122  0.0341 -0.1578
 1142SOL    HW1 3637   0.003   3.927   0.392 -1.0864  0.2583 -0.6879
 1142SOL    HW2 3638   0.102   3.894   0.282  1.8424 -0.6892  2.0476
 1143SOL     OW 3639   1.228   0.215   2.560  0.2989 -0.0779  0.2145
 1143SOL    HW1 3640   1.209   0.121   2.551  0.3026 -0.1969  1.3187
 1143SOL    HW2 3641   1.178   0.243   2.636 -0.7343  1.1366 -0.8561
 1144SOL     OW 3642   3.375   1.162   0.959  0.3736 -0.1514 -0.1848
 1144SOL    HW1 3643   3.464   1.134   0.979  0.5144  0.0735 -0.4911
 1144SOL    HW2 3644   3.327   1.081   0.945  0.4597 -0.2834  0.2669
 1145SOL     OW 3645   2.162   0.601   1.293 -0.1573 -0.7421 -0.2519
 1145SOL    HW1 3646   2.118   0.649   1.364 -0.1482 -0.2050 -0.6028
 1145SOL    HW2 3647   2.154   0.659   1.217  1.3508 -0.5215 -0.2765
 1146SOL     OW 3648   3.783   3.696   3.573 -0.2978 -0.2186 -0.0997
 1146SOL    HW1 3649   3.836   3.659   3.503  0.5645  0.8459 -0.0372
 1146SOL    HW2 3650   3.823   3.781   3.591  0.0633 -0.8155  2.2657
 1147SOL     OW 3651   1.773   3.428   3.580 -0.4252 -1.0771  0.6459
 1147SOL    HW1 3652   1.711   3.469   3.640 -0.9549  0.7291 -1.0373
 1147SOL    HW2 3653   1.858   3.465   3.606 -0.5500 -0.8330  0.7095
 1148SOL     OW 3654   1.385   0.532   3.747 -0.1392  0.1501  0.3831
 1148SOL    HW1 3655   1.295   0.564   3.748 -0.1017  0.3288 -0.6790
 1148SOL    HW2 3656   1.426   0.571   3.824 -0.4184  1.7296 -0.2355
 1149SOL     OW 3657   2.179   0.724   0.745  0.1720  0.1770 -0.0131
 1149SOL    HW1 3658   2.204   0.632   0.756 -1.4044 -0.1751  0.7604
 1149SOL    HW2 3659   2.097   0.721   0.696  1.2967  1.3038 -2.1448
 1150SOL     OW 3660   0.492   1.627   2.513  0.0520  0.5895  0.3778
 1150SOL    HW1 3661   0.428   1.682   2.468 -0.5123 -0.0772  0.3511
 1150SOL    HW2 3662   0.536   1.579   2.444 -0.3208  0.0967  0.4702
 1151SOL     OW 3663   2.596   3.697   0.000 -0.1259  0.3377  0.5452
 1151SOL    HW1 3664   2.647   3.753  -0.059 -0.2981 -0.5023 -0.4275
 1151SOL    HW2 3665   2.651   3.689   0.078 -0.5439  2.6713  1.1654
 1152SOL     OW 3666   2.595   4.183   0.296  0.2126  0.0917 -0.4633
 1152SOL    HW1 3667   2.528   4.199   0.363  1.7070  0.1172  1.0773
 1152SOL    HW2 3668   2.549   4.196   0.213 -1.1735  2.2376  0.5571
 1153SOL     OW 3669   4.008   0.906   2.422  0.0275 -0.4733 -0.3415
 1153SOL    HW1 3670   4.056   0.854   2.358 -0.5214  1.1894 -2.2185
 1153SOL    HW2 3671   4.074   0.960   2.464  0.4447 -1.8379  0.8516
 1154SOL     OW 3672   2.503   0.985   0.744 -0.3022 -0.5269  0.4372
 1154SOL    HW1 3673   2.557   1.035   0.683  0.6669 -0.1740  1.5460
 1154SOL    HW2 3674   2.500   1.038   0.824 -0.5124 -1.5243  1.1199
 1155SOL     OW 3675   1.075   3.827   3.675  0.1246  0.1289 -0.0851
 1155SOL    HW1 3676   1.113   3.741   3.691 -1.7460 -0.6599  0.3576
 1155SOL    HW2 3677   1.056   3.829   3.581  0.3768  0.1455 -0.1349
 1156SOL     OW 3678   3.324   2.562   2.630 -0.4224 -0.3013  0.4037
 1156SOL    HW1 3679   3.335   2.515   2.712 -2.8394  0.8216  1.4901
 1156SOL    HW2 3680   3.396   2.626   2.629  0.7767 -1.6035  0.6355
 1157SOL     OW 3681   3.691   2.395   1.514 -0.7127 -0.2509 -0.4704
 1157SOL    HW1 3682   3.690   2.314   1.565  0.5135  1.0006  1.6911
 1157SOL    HW2 3683   3.783   2.410   1.494 -0.9615  0.4375 -1.1414
 1158SOL     OW 3684   1.127   0.415   3.317  0.2740 -0.1814  0.2319
 1158SOL    HW1 3685   1.052   0.412   3.259  1.7238  2.2691 -2.0003
 1158SOL    HW2 3686   1.118   0.499   3.363  2.0097  0.5957 -0.7480
 1159SOL     OW 3687   0.342   1.002   2.449  0.3621  0.4063 -0.2370
 1159SOL    HW1 3688   0.330   1.097   2.449 -0.9930  0.2498 -0.1772
 1159SOL    HW2 3689   0.383   0.983   2.364  0.5387  1.0297 -0.2947
 1160SOL     OW 3690   1.729   0.817   3.195 -0.1113 -0.1303 -0.3304
 1160SOL    HW1 3691   1.759   0.835   3.106 -0.1196  0.7827 -0.1547
 1160SOL    HW2 3692   1.754   0.894   3.245 -0.3396 -0.5247  0.4087
 1161SOL     OW 3693   1.273   0.474   1.618  0.0265  0.4321 -0.4076
 1161SOL    HW1 3694   1.250   0.437   1.703 -0.6171  1.5165 -0.0977
 1161SOL    HW2 3695   1.368   0.478   1.619  0.0455 -0.0243  0.0630
 1162SOL     OW 3696   2.799   4.093   3.514 -0.8333  0.2357  0.0798
 1162SOL    HW1 3697   2.805   4.055   3.602  0.4239  0.0423 -0.0648
 1162SOL    HW2 3698   2.823   4.185   3.526 -1.0561  0.3029  0.0031
 1163SOL     OW 3699   1.941   2.060   3.534 -0.5017 -0.3100  0.4020
 1163SOL    HW1 3700   1.848   2.083   3.536 -0.5588 -0.0072 -2.2389
 1163SOL    HW2 3701   1.951   2.005   3.456  1.6126  0.0794  0.3248
 1164SOL     OW 3702   2.148   4.191   1.661  0.0899  0.0228 -0.1356
 1164SOL    HW1 3703   2.177   4.113   1.708 -1.8228 -0.0707  1.0002
 1164SOL    HW2 3704   2.053   4.181   1.654 -0.1664  2.0819 -0.2432
 1165SOL     OW 3705   2.855   3.648   0.753 -0.0360  0.2221 -0.3052
 1165SOL    HW1 3706   2.801   3.714   0.711  0.2592  0.6849  0.0376
 1165SOL    HW2 3707   2.816   3.635   0.839 -0.3837 -0.4096 -0.5552
 1166SOL     OW 3708   2.207   4.151   3.176  0.6935 -0.4386  0.1998
 1166SOL    HW1 3709   2.139   4.188   3.120  0.4892  0.5367  1.0595
 1166SOL    HW2 3710   2.203   4.057   3.159  0.5505 -0.1878 -1.2979
 1167SOL     OW 3711   2.364   0.715   0.204  0.8199 -0.2919  0.5532
 1167SOL    HW1 3712   2.282   0.686   0.244  1.4693 -2.4540  0.4725
 1167SOL    HW2 3713   2.367   0.809   0.220 -0.7862 -0.4558  2.1969
 1168SOL     OW 3714   0.275   1.803   1.928  0.2172 -0.2588 -0.3363
 1168SOL    HW1 3715   0.209   1.754   1.978  1.5953 -1.0884  0.7472
 1168SOL    HW2 3716   0.267   1.893   1.959 -1.4103 -0.0292 -1.3316
 1169SOL     OW 3717   3.061   0.318   0.447  0.0598 -0.2220  0.0331
 1169SOL    HW1 3718   3.143   0.298   0.403 -0.6194 -0.6065 -1.0954
 1169SOL    HW2 3719   3.013   0.373   0.385  0.3951  1.9964  1.6216
 1170SOL     OW 3720   3.532   4.041   0.950  0.1538 -0.0520 -0.1081
 1170SOL    HW1 3721   3.449   4.087   0.963  0.0774  0.0029 -0.7526
 1170SOL    HW2 3722   3.592   4.107   0.917  0.2303 -0.2641 -0.4011
 1171SOL     OW 3723   0.902   1.446   2.856 -0.1572  0.6161  0.3045
 1171SOL    HW1 3724   0.956   1.372   2.884 -1.5799 -0.0894  1.3248
 1171SOL    HW2 3725   0.917   1.513   2.922 -0.2633  0.5469  0.3995
 1172SOL     OW 3726   0.553   3.565   2.637  0.2033  0.7176  0.4239
 1172SOL    HW1 3727   0.490   3.512   2.589  1.5856 -0.3806 -0.2622
 1172SOL    HW2 3728   0.638   3.541   2.600  1.1151  1.5377  1.8700
 1173SOL     OW 3729   3.847   1.237   1.158  0.5127  0.6157 -0.3046
 1173SOL    HW1 3730   3.932   1.242   1.114  0.8615  2.8082  0.5132
 1173SOL    HW2 3731   3.869   1.219   1.249  0.0375  0.3552 -0.2399
 1174SOL     OW 3732   3.489   0.114   1.972  0.7677  0.1922 -0.5801
 1174SOL    HW1 3733   3.499   0.070   2.056  0.4956  2.1137  0.5209
 1174SOL    HW2 3734   3.547   0.067   1.913  1.3764 -0.8694  0.8154
 1175SOL     OW 3735   3.155   0.873   1.243  0.1285  1.1770  0.1201
 1175SOL    HW1 3736   3.189   0.954   1.282  0.9175 -1.0040  4.6560
 1175SOL    HW2 3737   3.130   0.819   1.318 -2.2631 -2.0837 -2.6920
 1176SOL     OW 3738   1.853   4.195   1.658  0.7323 -0.5210  0.2233
 1176SOL    HW1 3739   1.799   4.157   1.589  1.5380 -0.2108 -0.5936
 1176SOL    HW2 3740   1.798   4.264   1.697  0.0323 -1.1420  0.3494
 1177SOL     OW 3741   3.522   3.393   3.828  0.4105  0.9100 -1.3367
 1177SOL    HW1 3742   3.577   3.393   3.749  2.1305 -0.7350 -0.2244
 1177SOL    HW2 3743   3.467   3.315   3.820  1.5124 -0.0033 -0.3603
 1178SOL     OW 3744   0.681   3.384   3.048 -0.4844 -0.8096 -0.4600
 1178SOL    HW1 3745   0.682   3.447   3.119  3.0902 -1.2969  0.1251
 1178SOL    HW2 3746   0.605   3.328   3.066 -0.8711  0.3277  1.7707
 1179SOL     OW 3747   1.625   4.071   2.445 -0.1704 -0.1351 -0.0541
 1179SOL    HW1 3748   1.608   3.982   2.415 -0.1846 -0.7852  1.7555
 1179SOL    HW2 3749   1.542   4.102   2.480 -0.0009  0.3536 -0.0653
 1180SOL     OW 3750   1.962   2.281   0.810  0.1629  0.0563 -0.3341
 1180SOL    HW1 3751   1.905   2.357   0.819 -0.6648 -0.5649 -0.2368
 1180SOL    HW2 3752   2.049   2.314   0.833  0.1514  1.3921 -1.9360
 1181SOL     OW 3753   1.633   3.377   2.696 -0.2742 -0.1442 -0.6938
 1181SOL    HW1 3754   1.712   3.423   2.723 -0.4083 -0.3318  0.0699
 1181SOL    HW2 3755   1.583   3.441   2.646 -0.4334  0.5387  0.3103
 1182SOL     OW 3756   2.798   3.278   0.952  0.3373  0.1963 -0.1791
 1182SOL    HW1 3757   2.800   3.219   1.028 -1.9953 -0.3333 -0.4493
 1182SOL    HW2 3758   2.711   3.265   0.914  0.3128  2.6900 -1.1740
 1183SOL     OW 3759   1.462   0.830   3.121  0.4891  0.0738 -0.0774
 1183SOL    HW1 3760   1.537   0.795   3.170  1.4981  1.4978 -0.5503
 1183SOL    HW2 3761   1.480   0.808   3.030  1.4361  2.2161 -0.4620
 1184SOL     OW 3762   3.010   2.590   1.116  0.1322  0.1708 -0.7831
 1184SOL    HW1 3763   2.991   2.546   1.199  0.2678  0.0424 -0.8210
 1184SOL    HW2 3764   3.088   2.546   1.083 -0.1600 -0.0526 -1.1789
 1185SOL     OW 3765   0.180   2.014   3.868  0.0715  0.2813 -0.0283
 1185SOL    HW1 3766   0.101   2.001   3.920  1.4743  1.2604  2.4854
 1185SOL    HW2 3767   0.230   1.933   3.879  0.8463  0.8896  1.0745
 1186SOL     OW 3768   3.438   1.556   1.312 -0.2924 -0.5383  0.0548
 1186SOL    HW1 3769   3.457   1.571   1.405  0.5561  0.4787 -0.2704
 1186SOL    HW2 3770   3.524   1.550   1.270 -0.5737  2.7923 -1.2339
 1187SOL     OW 3771   4.070   3.966   2.390 -0.2197  0.1033 -0.6192
 1187SOL    HW1 3772   4.042   4.058   2.393  1.3218  0.5806  0.5867
 1187SOL    HW2 3773   4.163   3.969   2.413 -0.4524 -1.8834  0.8601
 1188SOL     OW 3774   0.128   2.958   0.458 -0.5713  0.1211 -0.2575
 1188SOL    HW1 3775   0.178   2.878   0.443 -0.3840 -0.1759  1.6901
 1188SOL    HW2 3776   0.061   2.958   0.390  2.6287  1.0996 -3.7599
 1189SOL     OW 3777   2.066   0.786   2.866 -0.7215 -0.3598  0.7371
 1189SOL    HW1 3778   2.093   0.704   2.908 -0.1467  0.0593  1.2136
 1189SOL    HW2 3779   2.148   0.828   2.841 -0.9838  0.2959  0.9492
 1190SOL     OW 3780   0.397   0.987   2.174  0.2735 -0.8159  0.0773
 1190SOL    HW1 3781   0.349   1.004   2.093 -1.4006  1.8561  1.4603
 1190SOL    HW2 3782   0.466   0.927   2.149 -1.6363 -2.0349 -2.8067
 1191SOL     OW 3783   2.600   2.213   0.537  0.1300 -0.1578  0.7041
 1191SOL    HW1 3784   2.535   2.271   0.577 -0.4504 -0.5998  0.4250
 1191SOL    HW2 3785   2.593   2.230   0.443  1.2722  0.6570  0.7514
 1192SOL     OW 3786   3.472   0.824   1.505  0.4371  0.2673  0.6901
 1192SOL    HW1 3787   3.415   0.901   1.507 -0.5482 -0.3763 -0.7524
 1192SOL    HW2 3788   3.475   0.799   1.412  1.5302 -0.8568  1.0061
 1193SOL     OW 3789   1.116   2.259   3.776  0.3500 -0.2226  0.5316
 1193SOL    HW1 3790   1.164   2.188   3.733 -0.7934  0.1167 -1.3889
 1193SOL    HW2 3791   1.184   2.309   3.821  1.6459 -0.5622 -0.9604
 1194SOL     OW 3792   0.671   0.649   3.612 -0.0642  0.7285 -0.6360
 1194SOL    HW1 3793   0.642   0.687   3.529  0.9008  1.2557 -0.7476
 1194SOL    HW2 3794   0.765   0.665   3.614  0.3881 -1.5923 -0.6163
 1195SOL     OW 3795   0.037   2.673   3.913 -0.2444  0.0402  0.1899
 1195SOL    HW1 3796   0.120   2.695   3.954 -0.8165  0.3181  1.2475
 1195SOL    HW2 3797   0.047   2.582   3.885 -0.4834 -0.8521  2.7538
 1196SOL     OW 3798   3.691   4.060   4.183  0.7669 -0.1916 -0.0841
 1196SOL    HW1 3799   3.667   3.976   4.224  0.5696  0.3673  0.9903
 1196SOL    HW2 3800   3.776   4.082   4.221  2.1732 -1.2038 -2.4171
 1197SOL     OW 3801   0.422   1.496   3.733 -0.7115 -0.1880  0.2954
 1197SOL    HW1 3802   0.414   1.588   3.709  0.8836  0.1200  0.7984
 1197SOL    HW2 3803   0.421   1.496   3.829 -2.4103 -0.9048  0.3196
 1198SOL     OW 3804   3.216   0.196   1.138 -0.0134  0.0491  0.5109
 1198SOL    HW1 3805   3.290   0.180   1.079  2.1035  2.2644  2.3684
 1198SOL    HW2 3806   3.180   0.280   1.110 -0.7995 -0.2342  0.6454
 1199SOL     OW 3807   0.188   1.249   0.628  0.3980 -0.0480 -0.4564
 1199SOL    HW1 3808   0.211   1.307   0.700 -0.0926 -0.4993  0.0824
 1199SOL    HW2 3809   0.208   1.298   0.549 -0.6723  1.1389 -0.0184
 1200SOL     OW 3810   2.490   0.585   1.941 -0.4033 -0.0285  0.4050
 1200SOL    HW1 3811   2.461   0.496   1.921  0.2410 -0.1761  0.1217
 1200SOL    HW2 3812   2.410   0.630   1.969 -1.1497 -0.1332 -1.3750
 1201SOL     OW 3813   2.770   1.238   1.101 -0.3434  0.1913 -0.0833
 1201SOL    HW1 3814   2.860   1.256   1.075 -0.7051  0.2937 -1.3045
 1201SOL    HW2 3815   2.778   1.176   1.174  0.6892 -0.2691 -0.5685
 1202SOL     OW 3816   1.606   1.261   3.657  0.2422  0.0543  0.0898
 1202SOL    HW1 3817   1.598   1.283   3.564  0.0294  0.3854  0.1845
 1202SOL    HW2 3818   1.520   1.227   3.681  1.1587 -3.1107 -0.6096
 1203SOL     OW 3819   0.914   1.245   0.616 -0.6357 -0.0567  0.0050
 1203SOL    HW1 3820   0.904   1.341   0.620  0.8967  0.2400 -1.9716
 1203SOL    HW2 3821   0.900   1.217   0.707 -0.8649  2.0673  0.6973
 1204SOL     OW 3822   2.466   2.610   0.955  0.2095  0.7586 -0.0705
 1204SOL    HW1 3823   2.477   2.609   0.860  1.2837  0.4088  0.0427
 1204SOL    HW2 3824   2.458   2.517   0.978  2.1950  0.6488  0.3883
 1205SOL     OW 3825   4.035   0.906   4.104  0.3500  0.1909 -0.3063
 1205SOL    HW1 3826   4.032   0.822   4.059  0.3797 -0.2445  0.4790
 1205SOL    HW2 3827   4.029   0.884   4.197 -1.1582  1.1467 -0.1386
 1206SOL     OW 3828   3.446   1.544   1.804 -0.1713  0.4281  0.9659
 1206SOL    HW1 3829   3.431   1.496   1.886 -1.1972  1.7018  1.5610
 1206SOL    HW2 3830   3.511   1.492   1.757  0.6918 -0.1657  2.7389
 1207SOL     OW 3831   3.515   4.265   2.242  0.2351  0.1703  0.1844
 1207SOL    HW1 3832   3.592   4.226   2.284  0.6453 -0.8540 -1.4340
 1207SOL    HW2 3833   3.450   4.195   2.243  0.7048 -0.3788 -2.0225
 1208SOL     OW 3834   3.776   2.127   3.703 -0.3836  0.3931 -0.4606
 1208SOL    HW1 3835   3.774   2.179   3.783  0.0389  1.1765 -0.9453
 1208SOL    HW2 3836   3.690   2.087   3.698 -0.5385  0.6311  0.1920
 1209SOL     OW 3837   0.512   0.150   1.392 -0.6111 -0.5294  0.0288
 1209SOL    HW1 3838   0.489   0.141   1.300 -0.6985 -0.8457  0.0797
 1209SOL    HW2 3839   0.486   0.239   1.415 -0.0470 -0.2497 -0.4039
 1210SOL     OW 3840   0.140   1.556   2.699  0.2498  0.2138  0.2776
 1210SOL    HW1 3841   0.232   1.566   2.722  0.5294  0.1978 -0.7848
 1210SOL    HW2 3842   0.101   1.642   2.716  0.2890  0.0194  1.4215
 1211SOL     OW 3843   2.776   0.319   2.374 -0.9190 -0.0063 -0.1644
 1211SOL    HW1 3844   2.758   0.347   2.464 -0.6712 -1.0826  0.2268
 1211SOL    HW2 3845   2.839   0.384   2.341  0.3241 -0.5594  1.0179
 1212SOL     OW 3846   2.906   0.134   0.013  0.3998  0.0366 -0.1373
 1212SOL    HW1 3847   2.991   0.139  -0.031  1.2181 -0.3990  1.3431
 1212SOL    HW2 3848   2.912   0.200   0.082 -0.9022  0.7645 -0.6793
 1213SOL     OW 3849   2.363   4.051   1.130  0.1248  0.2757 -0.3972
 1213SOL    HW1 3850   2.436   4.112   1.135  1.0077 -0.6515 -1.5426
 1213SOL    HW2 3851   2.297   4.088   1.189  2.4531 -0.1834  2.7007
 1214SOL     OW 3852   1.388   4.168   2.534 -0.2688 -0.2143 -0.1734
 1214SOL    HW1 3853   1.412   4.228   2.605  2.1842 -0.3200 -0.8524
 1214SOL    HW2 3854   1.354   4.225   2.465 -0.5074  0.0974  0.1929
 1215SOL     OW 3855   4.256   2.330   2.393 -1.3095 -0.0487  0.2080
 1215SOL    HW1 3856   4.167   2.296   2.394 -0.0722 -3.7298 -0.2441
 1215SOL    HW2 3857   4.286   2.322   2.483 -0.6922 -1.2228 -0.0797
 1216SOL     OW 3858   3.871   3.960   1.267 -0.3502 -0.4199  0.2969
 1216SOL    HW1 3859   3.921   3.973   1.348 -1.4235 -0.1788  0.9521
 1216SOL    HW2 3860   3.875   4.045   1.223  0.5895 -0.6715 -0.1250
 1217SOL     OW 3861   3.834   1.364   3.249 -0.0834 -0.5940 -0.0787
 1217SOL    HW1 3862   3.752   1.397   3.213  0.0552 -0.3702 -0.1892
 1217SOL    HW2 3863   3.840   1.403   3.336  0.2638 -0.0242 -0.3536
 1218SOL     OW 3864   2.898   0.448   3.799  0.4122  0.1249  0.0985
 1218SOL    HW1 3865   2.983   0.438   3.842 -0.6017 -0.9943  1.9674
 1218SOL    HW2 3866   2.919   0.484   3.713  2.7842 -0.3095  0.4251
 1219SOL     OW 3867   2.993   1.962   1.537  0.0083 -0.2234 -0.1919
 1219SOL    HW1 3868   2.932   1.889   1.521  0.9911 -1.0435 -0.2558
 1219SOL    HW2 3869   2.995   2.010   1.454 -1.3024  0.4185  0.1047
 1220SOL     OW 3870   2.677   0.264   3.232  0.3649  0.1312 -0.0367
 1220SOL    HW1 3871   2.623   0.308   3.165 -1.1316 -1.3623  0.1309
 1220SOL    HW2 3872   2.691   0.176   3.198  1.2982 -0.0303  0.7250
 1221SOL     OW 3873   2.140   0.310   1.291 -0.0870  0.5990  0.0519
 1221SOL    HW1 3874   2.189   0.390   1.312  0.6675 -0.2005  1.5515
 1221SOL    HW2 3875   2.134   0.263   1.375 -2.7323  0.2516 -0.2496
 1222SOL     OW 3876   2.566   1.693   1.408  0.1856  0.0497 -0.0539
 1222SOL    HW1 3877   2.495   1.630   1.416 -0.0999  0.4930  1.0893
 1222SOL    HW2 3878   2.524   1.779   1.418  0.8379  0.3179  0.5124
 1223SOL     OW 3879   4.258   1.923   3.664  0.0922 -0.0974 -0.4975
 1223SOL    HW1 3880   4.245   1.828   3.665  0.7584 -0.2048  1.4771
 1223SOL    HW2 3881   4.172   1.960   3.685  0.1535 -0.3310  0.1813
 1224SOL     OW 3882   2.741   2.348   1.655 -0.4235  0.4040  0.4212
 1224SOL    HW1 3883   2.732   2.273   1.596  2.1126 -1.7283  2.4585
 1224SOL    HW2 3884   2.827   2.385   1.634  0.9736 -0.9637  3.1075
 1225SOL     OW 3885   1.496   1.499   2.113  0.4664  0.2161  0.2355
 1225SOL    HW1 3886   1.580   1.490   2.158  0.1069  0.6847  1.0236
 1225SOL    HW2 3887   1.437   1.535   2.179 -0.3668 -0.1347 -0.2969
 1226SOL     OW 3888   3.257   3.824   0.122  0.6009  0.3201  0.2387
 1226SOL    HW1 3889   3.222   3.873   0.048 -0.6232 -1.9338 -0.7905
 1226SOL    HW2 3890   3.182   3.779   0.159  1.8782 -2.3859 -0.2017
 1227SOL     OW 3891   2.553   0.138   0.926 -0.0847  0.1821 -0.4210
 1227SOL    HW1 3892   2.568   0.070   0.860  0.4725  0.1217 -0.2406
 1227SOL    HW2 3893   2.579   0.220   0.882 -0.4068  0.2338 -0.5167
 1228SOL     OW 3894   3.020   1.510   2.238 -0.7329  0.3101  0.4306
 1228SOL    HW1 3895   3.055   1.429   2.277 -0.6837  1.0018  1.9197
 1228SOL    HW2 3896   3.012   1.570   2.313 -0.7623  1.6835 -0.6418
 1229SOL     OW 3897   3.792   0.426   4.098 -0.4185 -0.3156  0.2228
 1229SOL    HW1 3898   3.761   0.516   4.108  1.1457  0.3114 -0.1875
 1229SOL    HW2 3899   3.887   0.433   4.107 -0.2518 -1.8992 -0.0721
 1230SOL     OW 3900   2.780   2.077   0.372  0.4919 -0.9850 -0.0520
 1230SOL    HW1 3901   2.756   2.131   0.448  0.4497 -1.2903  0.1544
 1230SOL    HW2 3902   2.874   2.063   0.382  0.4039 -1.4040  0.1906
 1231SOL     OW 3903   3.860   3.219   3.706  0.3757 -0.1389 -0.6323
 1231SOL    HW1 3904   3.851   3.124   3.715  1.4301 -0.2616 -0.7421
 1231SOL    HW2 3905   3.792   3.243   3.644 -0.7842 -0.6191  0.3991
 1232SOL     OW 3906   1.051   3.377   2.300  0.2035  0.2363 -0.1378
 1232SOL    HW1 3907   1.021   3.291   2.269  0.9407 -0.0290 -0.1310
 1232SOL    HW2 3908   0.984   3.404   2.364 -0.0432 -0.3199 -0.1545
 1233SOL     OW 3909   0.808   4.183   0.970  0.2538 -0.3286  0.2534
 1233SOL    HW1 3910   0.881   4.244   0.961  0.6520 -0.9046 -0.5122
 1233SOL    HW2 3911   0.847   4.102   1.002 -0.0019 -0.7113 -0.3791
 1234SOL     OW 3912   1.913   4.017   1.914  0.4190  0.2613 -0.0113
 1234SOL    HW1 3913   1.997   4.050   1.946  0.4387  0.6368 -0.4322
 1234SOL    HW2 3914   1.884   4.083   1.850  0.0289 -0.0990 -0.2133
 1235SOL     OW 3915   0.872   1.050   2.870  0.1562 -0.0768  0.2081
 1235SOL    HW1 3916   0.805   1.067   2.804  0.0408  0.2101  0.3972
 1235SOL    HW2 3917   0.828   0.998   2.937 -0.5748  2.0670  1.5144
 1236SOL     OW 3918   2.699   0.733   2.455  0.1608  0.0862  0.5278
 1236SOL    HW1 3919   2.633   0.801   2.439 -0.6875 -0.6788  0.6827
 1236SOL    HW2 3920   2.721   0.700   2.367  2.1263  1.9334  0.2442
 1237SOL     OW 3921   0.018   1.799   2.685 -0.0279  0.4316 -0.0255
 1237SOL    HW1 3922   0.040   1.889   2.706 -2.8729  1.2422 -0.1587
 1237SOL    HW2 3923   0.012   1.797   2.589 -2.5855  0.8839  0.0533
 1238SOL     OW 3924   2.733   3.435   4.234 -0.3785  0.2814 -0.4693
 1238SOL    HW1 3925   2.809   3.460   4.286 -0.7759 -0.0510  0.2736
 1238SOL    HW2 3926   2.768   3.375   4.168  0.1830  0.9686 -0.8139
 1239SOL     OW 3927   2.362   3.894   2.646 -0.7710  1.0777  0.4357
 1239SOL    HW1 3928   2.365   3.878   2.740  3.0970  1.1495  0.5001
 1239SOL    HW2 3929   2.366   3.989   2.637  1.0299  1.0333  0.3134
 1240SOL     OW 3930   1.696   2.489   4.082 -0.0797 -0.1447 -0.2270
 1240SOL    HW1 3931   1.719   2.469   3.991  0.6731 -0.0997 -0.0573
 1240SOL    HW2 3932   1.780   2.494   4.127 -0.4790 -0.9243  0.6364
 1241SOL     OW 3933   2.251   4.201   3.433 -0.0388 -0.1550 -0.4556
 1241SOL    HW1 3934   2.239   4.195   3.339 -3.2530  0.0790 -0.1814
 1241SOL    HW2 3935   2.302   4.281   3.446 -1.5413  1.1153 -1.9521
 1242SOL     OW 3936   0.123   0.612   0.176 -0.3779 -0.4621  0.5284
 1242SOL    HW1 3937   0.057   0.544   0.160 -1.6653  0.8749 -0.1621
 1242SOL    HW2 3938   0.206   0.565   0.175 -0.7498 -1.5649 -4.2488
 1243SOL     OW 3939   3.362   0.477   2.768  0.0066 -0.3911  0.1796
 1243SOL    HW1 3940   3.282   0.428   2.747 -0.1427 -0.6282  1.2447
 1243SOL    HW2 3941   3.404   0.490   2.684 -1.3505  0.0828 -0.4621
 1244SOL     OW 3942   1.813   3.547   1.038 -0.2125  0.8415 -0.0550
 1244SOL    HW1 3943   1.752   3.585   1.101 -0.7739 -0.4100  0.1969
 1244SOL    HW2 3944   1.897   3.588   1.058 -0.4609  0.7515  1.2768
 1245SOL     OW 3945   0.874   2.820   3.678 -0.3340  0.6718  0.6145
 1245SOL    HW1 3946   0.839   2.733   3.701 -1.3513  0.6503 -0.8183
 1245SOL    HW2 3947   0.873   2.821   3.582  2.2137  1.2967  0.5246
 1246SOL     OW 3948   1.477   3.760   1.680 -0.0727 -0.2796  0.0352
 1246SOL    HW1 3949   1.431   3.825   1.627 -0.9234 -1.1257 -0.2948
 1246SOL    HW2 3950   1.511   3.697   1.617 -1.1407 -1.3220  0.4624
 1247SOL     OW 3951   1.145   2.858   1.635  0.3825  0.2247  0.1694
 1247SOL    HW1 3952   1.160   2.766   1.655 -0.6177  0.2475  1.1289
 1247SOL    HW2 3953   1.212   2.905   1.685  0.5758  0.0423  0.0799
 1248SOL     OW 3954   0.044   4.179   2.026  0.6095  0.4574 -0.9560
 1248SOL    HW1 3955   0.119   4.122   2.043 -0.0208 -0.0799  0.2074
 1248SOL    HW2 3956   0.065   4.261   2.072  0.6460  0.4404 -0.9425
 1249SOL     OW 3957   0.931   1.643   3.352  0.4567 -0.0731 -0.0120
 1249SOL    HW1 3958   0.887   1.676   3.273 -0.0761 -1.3335 -0.2619
 1249SOL    HW2 3959   0.905   1.551   3.357  2.3920 -0.6274  0.3363
 1250SOL     OW 3960   0.310   0.300   2.000 -0.4054  0.4395 -0.3112
 1250SOL    HW1 3961   0.216   0.291   2.015 -0.1357 -0.0856  1.2892
 1250SOL    HW2 3962   0.345   0.330   2.084  0.9356  0.0571 -0.7066
 1251SOL     OW 3963   2.809   1.462   0.220  0.1568  0.0226  0.3826
 1251SOL    HW1 3964   2.824   1.451   0.314 -0.0006  0.6483  0.4819
 1251SOL    HW2 3965   2.784   1.554   0.210 -1.3168 -0.4103 -0.0868
 1252SOL     OW 3966   1.274   0.709   2.609 -0.1864 -0.2695  0.1555
 1252SOL    HW1 3967   1.192   0.751   2.636 -0.8675 -0.1155 -1.9280
 1252SOL    HW2 3968   1.295   0.749   2.525  3.3851  1.4385  1.6661
 1253SOL     OW 3969   3.464   1.087   0.576  0.4603 -0.5162  0.1088
 1253SOL    HW1 3970   3.405   1.125   0.512  0.9898 -0.9412 -0.6417
 1253SOL    HW2 3971   3.531   1.154   0.590 -0.0751 -0.1157  0.8073
 1254SOL     OW 3972   2.515   0.396   0.317  0.3733 -0.3739  0.0211
 1254SOL    HW1 3973   2.551   0.441   0.240  1.5676 -1.3158 -0.0103
 1254SOL    HW2 3974   2.435   0.354   0.285 -0.1426  0.7762 -0.2273
 1255SOL     OW 3975   0.933   0.934   3.321 -0.0411  0.5819  0.0621
 1255SOL    HW1 3976   1.010   0.991   3.326  1.3705 -1.1126 -1.1840
 1255SOL    HW2 3977   0.929   0.892   3.407 -0.0381  1.2365  0.3885
 1256SOL     OW 3978   2.772   4.297   3.146 -0.1325 -0.1150 -0.3506
 1256SOL    HW1 3979   2.745   4.228   3.086  1.9529 -0.6249 -0.7736
 1256SOL    HW2 3980   2.824   4.356   3.092 -3.2005  2.8319 -0.4300
 1257SOL     OW 3981   3.339   0.518   0.754 -0.3754  0.2068 -0.2327
 1257SOL    HW1 3982   3.272   0.577   0.720 -0.3264  0.9780  0.9822
 1257SOL    HW2 3983   3.399   0.574   0.803  1.9842 -0.2362 -2.3921
 1258SOL     OW 3984   3.782   0.051   2.847 -0.2552  0.4922  0.5821
 1258SOL    HW1 3985   3.687   0.057   2.858 -0.2476 -0.7246  1.6636
 1258SOL    HW2 3986   3.818   0.092   2.925  0.0282 -0.8847  1.2184
 1259SOL     OW 3987   2.205   1.672   4.010  0.4624 -0.0009 -0.4713
 1259SOL    HW1 3988   2.223   1.620   4.088 -1.2922  0.9414  0.5911
 1259SOL    HW2 3989   2.167   1.609   3.948 -0.1460 -0.3268  0.2178
 1260SOL     OW 3990   3.076   0.773   1.502  0.2099 -0.1353 -0.5674
 1260SOL    HW1 3991   3.027   0.839   1.551 -0.1779  0.6462 -1.9486
 1260SOL    HW2 3992   3.120   0.721   1.570  0.1263  1.2194  0.5890
 1261SOL     OW 3993   2.036   0.435   1.886 -0.9777 -0.5980  0.0278
 1261SOL    HW1 3994   1.973   0.495   1.926  0.9933  2.2750 -0.9048
 1261SOL    HW2 3995   2.121   0.476   1.901  0.5229 -3.2765 -0.5636
 1262SOL     OW 3996   1.858   2.282   3.223 -0.0974 -0.6057 -0.0933
 1262SOL    HW1 3997   1.945   2.253   3.252 -0.0022 -2.0073 -1.6389
 1262SOL    HW2 3998   1.871   2.373   3.195  0.2373  0.1051  2.1982
 1263SOL     OW 3999   2.612   2.670   1.173 -0.1902  0.2388 -0.1016
 1263SOL    HW1 4000   2.560   2.666   1.093  1.3613  0.5381 -1.1623
 1263SOL    HW2 4001   2.668   2.747   1.162  2.3812 -1.5223 -0.2540
 1264SOL     OW 4002   0.632   4.269   1.601  0.2077 -0.3687  0.4173
 1264SOL    HW1 4003   0.544   4.298   1.574 -0.6512 -0.6682  2.6618
 1264SOL    HW2 4004   0.688   4.344   1.581 -0.5131 -0.2010 -1.1520
 1265SOL     OW 4005   0.277   3.545   3.602 -0.1938  0.2684 -0.0153
 1265SOL    HW1 4006   0.280   3.492   3.522 -2.6695 -0.0684  0.0244
 1265SOL    HW2 4007   0.338   3.617   3.586  1.5446 -1.3283 -0.9888
 1266SOL     OW 4008   0.256   2.135   0.790 -0.2393  0.3636  0.3307
 1266SOL    HW1 4009   0.350   2.145   0.808 -0.0842 -0.1289 -0.1517
 1266SOL    HW2 4010   0.235   2.048   0.823 -0.1500 -0.1878 -0.9882
 1267SOL     OW 4011   2.316   1.087   2.138 -0.3835 -0.3619 -0.0574
 1267SOL    HW1 4012   2.221   1.072   2.145 -0.7483  1.4308 -0.6864
 1267SOL    HW2 4013   2.336   1.147   2.210  0.5688 -1.7693  0.9150
 1268SOL     OW 4014   2.357   3.930   2.249  0.0438  0.0123  0.5324
 1268SOL    HW1 4015   2.309   3.863   2.298 -0.8347  0.2416 -0.0111
 1268SOL    HW2 4016   2.384   3.886   2.168 -0.4129  0.2735  0.2379
 1269SOL     OW 4017   3.700   1.089   0.837 -0.1494  0.1167  0.0203
 1269SOL    HW1 4018   3.763   1.069   0.906  2.7151 -1.8590 -2.8666
 1269SOL    HW2 4019   3.747   1.149   0.778 -2.4188  1.6290 -0.3711
 1270SOL     OW 4020   0.648   0.344   1.857  0.3059  0.1052 -0.3772
 1270SOL    HW1 4021   0.566   0.321   1.812  0.5792 -0.6197 -0.5193
 1270SOL    HW2 4022   0.695   0.399   1.794 -0.2876  0.9523 -0.0965
 1271SOL     OW 4023   0.432   3.625   1.843  0.1626 -0.1756  0.4475
 1271SOL    HW1 4024   0.487   3.558   1.882  1.0399 -0.6032 -1.4117
 1271SOL    HW2 4025   0.494   3.691   1.811 -0.5571  0.4374  0.2873
 1272SOL     OW 4026   0.460   0.629   1.697 -0.2582  0.2600  0.1510
 1272SOL    HW1 4027   0.448   0.680   1.617 -1.7434  1.2419  0.9480
 1272SOL    HW2 4028   0.554   0.633   1.715 -0.0389  0.8143 -1.0087
 1273SOL     OW 4029   3.689   3.244   1.364 -0.3221  0.3743  0.4610
 1273SOL    HW1 4030   3.706   3.241   1.270  1.8961  2.1848  0.7342
 1273SOL    HW2 4031   3.622   3.312   1.375 -0.9795 -0.2077  0.1985
 1274SOL     OW 4032   3.806   4.085   2.942  0.1806 -0.0633  0.3062
 1274SOL    HW1 4033   3.783   4.178   2.948  1.8138  0.3285  0.9435
 1274SOL    HW2 4034   3.781   4.049   3.027 -1.4509 -0.4758 -0.3172
 1275SOL     OW 4035   3.777   3.984   3.233 -0.4132 -0.0665 -0.5173
 1275SOL    HW1 4036   3.713   4.039   3.279 -0.7613 -1.2482  0.4746
 1275SOL    HW2 4037   3.860   3.999   3.280 -0.4234 -0.0844 -0.4931
 1276SOL     OW 4038   1.184   0.472   1.222  0.0930  0.0668 -0.3902
 1276SOL    HW1 4039   1.126   0.417   1.273 -2.3204  3.5230  0.9776
 1276SOL    HW2 4040   1.269   0.428   1.226 -1.4859 -3.1771  0.9308
 1277SOL     OW 4041   1.416   3.843   0.433  0.5640  0.3415 -0.1633
 1277SOL    HW1 4042   1.383   3.783   0.500  0.0597  0.9162  0.1061
 1277SOL    HW2 4043   1.511   3.839   0.442  0.6686 -1.8378 -1.3744
 1278SOL     OW 4044   1.160   0.951   2.651 -0.3190 -0.1403 -0.3428
 1278SOL    HW1 4045   1.163   0.976   2.744  0.6406  0.3387 -0.4941
 1278SOL    HW2 4046   1.066   0.951   2.630 -0.8440 -2.9864  1.3444
 1279SOL     OW 4047   1.348   2.958   2.316  0.1971  0.4767  0.1957
 1279SOL    HW1 4048   1.349   3.053   2.316  0.3578  0.4824  0.9417
 1279SOL    HW2 4049   1.435   2.933   2.286 -0.1127  0.5505 -0.8042
 1280SOL     OW 4050   0.974   0.231   1.659 -0.3877 -0.2576  0.0837
 1280SOL    HW1 4051   0.922   0.187   1.726 -0.4282 -0.9574 -0.4022
 1280SOL    HW2 4052   0.929   0.212   1.576  0.1129 -0.0805 -0.2377
 1281SOL     OW 4053   2.894   3.133   0.205 -0.3029 -0.0109 -0.5340
 1281SOL    HW1 4054   2.959   3.146   0.137 -0.6935  0.8282 -0.7729
 1281SOL    HW2 4055   2.900   3.041   0.228  2.3025  0.3873  0.8142
 1282SOL     OW 4056   1.333   3.007   1.788 -0.1458 -0.7376 -0.1807
 1282SOL    HW1 4057   1.410   3.057   1.816 -1.2426  0.9995 -0.1578
 1282SOL    HW2 4058   1.334   2.929   1.843  0.9734 -0.1960  0.6019
 1283SOL     OW 4059   4.235   3.867   0.054  0.4399 -0.5896 -0.0294
 1283SOL    HW1 4060   4.173   3.896   0.121 -1.0114 -0.6230 -1.2923
 1283SOL    HW2 4061   4.286   3.946   0.033 -1.5407  0.4205 -1.3937
 1284SOL     OW 4062   3.080   3.956   0.993  0.0912 -0.6791 -0.9323
 1284SOL    HW1 4063   3.167   3.993   1.012  0.4024 -0.9387 -1.8224
 1284SOL    HW2 4064   3.071   3.884   1.056  0.6020 -0.7675 -0.9538
 1285SOL     OW 4065   0.990   2.837   0.172  0.5757  0.1210 -0.1457
 1285SOL    HW1 4066   0.977   2.853   0.079 -2.2365  0.8231  0.2703
 1285SOL    HW2 4067   1.027   2.918   0.206 -0.6481  0.7589 -0.2946
 1286SOL     OW 4068   2.853   1.263   0.619  0.2779 -0.1255 -0.1781
 1286SOL    HW1 4069   2.769   1.253   0.574 -0.1472 -0.3657  0.6442
 1286SOL    HW2 4070   2.851   1.197   0.688  0.2398  1.2267  1.1784
 1287SOL     OW 4071   3.507   1.848   2.013 -0.1008  0.3317  0.0511
 1287SOL    HW1 4072   3.430   1.839   2.069  0.1034  0.1235  0.3017
 1287SOL    HW2 4073   3.472   1.871   1.927 -0.4148  0.6704  0.2690
 1288SOL     OW 4074   2.868   0.836   0.709 -0.0555 -0.4912  0.3630
 1288SOL    HW1 4075   2.851   0.896   0.636  1.4982  0.9094  1.0653
 1288SOL    HW2 4076   2.851   0.889   0.787  2.8610 -0.3581  1.0219
 1289SOL     OW 4077   2.776   1.950   0.929  0.5304  0.1297  0.6428
 1289SOL    HW1 4078   2.847   1.907   0.883  0.4865  0.1954  0.5132
 1289SOL    HW2 4079   2.723   1.990   0.860  0.7503  0.6658  0.7802
 1290SOL     OW 4080   3.606   0.080   0.308  0.2555 -0.1783  0.7413
 1290SOL    HW1 4081   3.628   0.144   0.376  1.5218  0.0415  0.1707
 1290SOL    HW2 4082   3.635   0.122   0.227 -0.5590 -0.7395  0.1520
 1291SOL     OW 4083   3.110   0.544   3.121  0.0077  0.3501 -0.2136
 1291SOL    HW1 4084   3.138   0.622   3.072  1.6578 -0.2020 -0.2049
 1291SOL    HW2 4085   3.015   0.553   3.127 -0.1839  0.8716 -2.7691
 1292SOL     OW 4086   4.102   3.462   1.922 -0.4273  0.3852 -0.1856
 1292SOL    HW1 4087   4.158   3.464   1.999 -1.0205  0.7944  0.2367
 1292SOL    HW2 4088   4.160   3.488   1.850  0.0725  0.2152  0.1543
 1293SOL     OW 4089   3.673   1.126   2.293  0.1680 -1.0572  0.3457
 1293SOL    HW1 4090   3.651   1.122   2.200  0.5560 -1.1226  0.2584
 1293SOL    HW2 4091   3.684   1.219   2.311  0.2788 -1.0592  0.2856
 1294SOL     OW 4092   0.056   1.907   0.907 -0.6223 -0.0646  0.4821
 1294SOL    HW1 4093   0.036   1.923   0.999  0.1730  0.5527  0.5598
 1294SOL    HW2 4094   0.012   1.977   0.860  0.8419  0.9760  0.6071
 1295SOL     OW 4095   2.743   0.584   0.762  0.4957  0.3645 -0.1365
 1295SOL    HW1 4096   2.680   0.605   0.831  1.3432 -0.4930  0.9307
 1295SOL    HW2 4097   2.823   0.630   0.787  1.7568 -2.3091  1.1639
 1296SOL     OW 4098   2.401   3.132   2.819  0.0085 -0.1020  0.3273
 1296SOL    HW1 4099   2.314   3.096   2.838 -0.3107  0.2111 -0.5056
 1296SOL    HW2 4100   2.392   3.226   2.836  0.0950 -0.0250 -0.0415
 1297SOL     OW 4101   4.181   3.508   0.956  0.0365  0.3438  0.1873
 1297SOL    HW1 4102   4.260   3.559   0.973 -0.4911  1.2089  0.1487
 1297SOL    HW2 4103   4.123   3.569   0.911 -0.0499 -0.7698 -1.2574
 1298SOL     OW 4104   2.720   3.770   1.911 -0.7375  0.2679 -0.2507
 1298SOL    HW1 4105   2.777   3.744   1.839  0.0385  0.4211  0.2989
 1298SOL    HW2 4106   2.764   3.844   1.952 -1.4489  0.5384  0.0433
 1299SOL     OW 4107   1.992   4.273   3.075  0.9487  0.5424  0.0294
 1299SOL    HW1 4108   1.972   4.336   3.145  0.1559 -0.0256  0.3292
 1299SOL    HW2 4109   1.952   4.191   3.104 -0.4449  0.5818 -1.6483
 1300SOL     OW 4110   1.249   1.330   2.076 -0.0383  0.2345  0.0974
 1300SOL    HW1 4111   1.206   1.402   2.124 -1.3069 -0.8066  0.5962
 1300SOL    HW2 4112   1.301   1.285   2.143 -2.1543 -1.4851  0.6864
 1301SOL     OW 4113   1.117   0.626   3.696 -0.1066 -0.2805 -0.0641
 1301SOL    HW1 4114   1.069   0.558   3.743  0.0408 -0.3230  0.0253
 1301SOL    HW2 4115   1.053   0.695   3.681 -0.3018 -0.5152 -0.3150
 1302SOL     OW 4116   0.027   4.115   3.987 -0.4247  0.1204  0.0604
 1302SOL    HW1 4117   0.089   4.187   3.976 -0.1939 -0.0540  0.1998
 1302SOL    HW2 4118  -0.043   4.150   4.042 -0.6014  0.4087 -0.3414
 1303SOL     OW 4119   2.847   0.357   0.229 -0.2873  0.2772  0.2021
 1303SOL    HW1 4120   2.771   0.402   0.193 -0.2391  1.7056  1.7794
 1303SOL    HW2 4121   2.811   0.287   0.284 -0.3618 -1.8424 -2.3473
 1304SOL     OW 4122   4.291   3.293   1.094  0.1445  0.2051  0.2915
 1304SOL    HW1 4123   4.232   3.299   1.169 -0.4928  0.0398 -0.1845
 1304SOL    HW2 4124   4.273   3.373   1.044  0.7006  0.4062  0.4135
 1305SOL     OW 4125   3.279   1.754   1.716 -0.0384 -0.1750  0.2841
 1305SOL    HW1 4126   3.328   1.682   1.756 -0.4929  0.5942  2.3578
 1305SOL    HW2 4127   3.188   1.738   1.741 -0.1846  0.9387  0.5065
 1306SOL     OW 4128   3.183   0.924   0.923  0.0268  0.2301 -0.3578
 1306SOL    HW1 4129   3.171   0.864   0.849 -0.3233  0.5808 -0.5949
 1306SOL    HW2 4130   3.124   0.891   0.990  0.2176  0.0104 -0.2961
 1307SOL     OW 4131   0.991   0.649   0.970  1.0763 -0.7802  0.1471
 1307SOL    HW1 4132   1.049   0.657   1.046 -0.6872  0.5274  1.4633
 1307SOL    HW2 4133   0.960   0.558   0.973  2.3543 -1.2472 -0.0839
 1308SOL     OW 4134   2.487   0.213   0.540 -0.2444 -0.2681  0.3412
 1308SOL    HW1 4135   2.555   0.237   0.603  1.1233 -0.8320 -0.8561
 1308SOL    HW2 4136   2.520   0.246   0.456 -1.9318  0.3106 -0.1291
 1309SOL     OW 4137   3.437   4.189   3.626  0.4078  0.3391 -0.0147
 1309SOL    HW1 4138   3.345   4.174   3.605 -0.2038  0.5650  2.2614
 1309SOL    HW2 4139   3.479   4.104   3.615 -0.3946 -0.1189  0.4338
 1310SOL     OW 4140   1.647   0.304   1.958 -0.5564 -0.0959 -0.4386
 1310SOL    HW1 4141   1.696   0.386   1.969  2.5342 -1.5350 -2.1079
 1310SOL    HW2 4142   1.583   0.305   2.029  0.2223  3.1305  0.4029
 1311SOL     OW 4143   3.090   0.371   4.038  0.4437  0.1980  0.1959
 1311SOL    HW1 4144   3.128   0.300   4.090 -0.0035 -0.6528 -0.5990
 1311SOL    HW2 4145   3.121   0.355   3.949 -3.0595 -1.6645 -0.9264
 1312SOL     OW 4146   3.806   0.961   3.211 -0.1102  0.2486  0.3107
 1312SOL    HW1 4147   3.857   0.925   3.283 -0.4289 -1.8516 -0.4530
 1312SOL    HW2 4148   3.730   1.001   3.253  0.2781  0.0662  1.2037
 1313SOL     OW 4149   2.445   0.284   1.946 -0.4887 -0.3697  0.2922
 1313SOL    HW1 4150   2.377   0.249   1.888  0.1806  0.3850 -0.9874
 1313SOL    HW2 4151   2.527   0.258   1.904  0.0102  0.3362  0.8262
 1314SOL     OW 4152   0.721   2.981   3.180  0.0111 -0.3069  0.2874
 1314SOL    HW1 4153   0.807   2.938   3.181  0.7592  1.1257 -0.5472
 1314SOL    HW2 4154   0.677   2.945   3.257  0.5710 -2.5667 -0.3543
 1315SOL     OW 4155   2.339   0.533   0.464 -0.2601  0.0504  0.2185
 1315SOL    HW1 4156   2.420   0.486   0.441 -0.0232  0.1002  0.9348
 1315SOL    HW2 4157   2.368   0.603   0.522 -0.9141 -0.4003  1.1011
 1316SOL     OW 4158   1.191   2.305   1.625  0.2393  0.3216 -0.0619
 1316SOL    HW1 4159   1.101   2.303   1.658  0.2267  1.7769  0.0686
 1316SOL    HW2 4160   1.245   2.307   1.704  0.5178 -2.5597 -0.1006
 1317SOL     OW 4161   2.562   0.612   0.983 -0.1516 -0.2615 -0.9094
 1317SOL    HW1 4162   2.487   0.561   1.013  0.2665 -0.5992 -0.4129
 1317SOL    HW2 4163   2.625   0.608   1.056 -0.5337  1.9027 -0.4062
 1318SOL     OW 4164   3.522   3.826   1.560 -0.4695  0.2290 -0.4569
 1318SOL    HW1 4165   3.567   3.772   1.625 -0.6362  1.4518  0.7001
 1318SOL    HW2 4166   3.588   3.889   1.531 -0.7852  0.5737 -0.4367
 1319SOL     OW 4167   4.290   3.392   4.160 -0.3558 -0.1085  0.4169
 1319SOL    HW1 4168   4.255   3.339   4.088  0.0761  0.0672  0.0710
 1319SOL    HW2 4169   4.357   3.446   4.119 -1.7844  1.7826  0.4630
 1320SOL     OW 4170   2.893   2.128   3.464  0.1157  0.0367  0.0177
 1320SOL    HW1 4171   2.920   2.036   3.464  1.2443  0.3500 -0.2701
 1320SOL    HW2 4172   2.937   2.166   3.388 -1.3533  0.5475 -0.6138
 1321SOL     OW 4173   4.286   4.269   1.307 -1.0591 -0.1510 -0.4905
 1321SOL    HW1 4174   4.260   4.184   1.273  1.2971 -1.3108  0.3956
 1321SOL    HW2 4175   4.341   4.307   1.238 -0.4124 -0.2807 -0.0545
 1322SOL     OW 4176   4.181   2.559   3.190 -0.0501  0.9228  0.0189
 1322SOL    HW1 4177   4.252   2.495   3.197 -1.1776 -0.3975 -0.1419
 1322SOL    HW2 4178   4.152   2.572   3.281 -0.7658  0.0562 -0.0650
 1323SOL     OW 4179   0.698   0.918   1.054  0.1408 -0.0432 -0.3991
 1323SOL    HW1 4180   0.789   0.943   1.073  0.1795 -1.2365  1.1745
 1323SOL    HW2 4181   0.700   0.822   1.052 -1.0420 -0.0712 -0.5952
 1324SOL     OW 4182   1.934   1.487   4.253 -0.0981 -0.0383  0.1612
 1324SOL    HW1 4183   1.904   1.400   4.226  0.9090 -0.4693  0.3750
 1324SOL    HW2 4184   1.992   1.470   4.328  1.4735  0.6508 -0.8413
 1325SOL     OW 4185   2.183   0.423   3.645 -0.0737  0.7396 -0.8502
 1325SOL    HW1 4186   2.158   0.455   3.559 -2.0796 -0.1513 -0.6606
 1325SOL    HW2 4187   2.109   0.446   3.702  0.7867  0.4645  0.4274
 1326SOL     OW 4188   4.121   4.139   0.628  0.0409  0.1704  0.0734
 1326SOL    HW1 4189   4.205   4.163   0.666 -0.6858  1.1006  1.1699
 1326SOL    HW2 4190   4.126   4.044   0.617 -0.1088 -0.3651  3.6593
 1327SOL     OW 4191   0.807   1.312   1.822  0.8929  0.6900  0.1794
 1327SOL    HW1 4192   0.873   1.279   1.883 -0.4926 -0.4734  1.1192
 1327SOL    HW2 4193   0.723   1.287   1.862 -0.0863  0.1051 -2.0754
 1328SOL     OW 4194   3.909   0.643   1.111 -0.6100 -0.0840 -0.4840
 1328SOL    HW1 4195   3.931   0.707   1.179 -2.1322 -0.4507  0.4145
 1328SOL    HW2 4196   3.891   0.562   1.159 -0.9290 -0.5746 -1.4010
 1329SOL     OW 4197   1.422   1.640   1.864 -0.0431  0.0705 -0.4954
 1329SOL    HW1 4198   1.365   1.602   1.797 -0.9287  0.6792 -0.0996
 1329SOL    HW2 4199   1.446   1.566   1.920 -2.1502  0.1120  0.5620
 1330SOL     OW 4200   1.529   3.588   0.014 -0.0213  0.1499 -0.0222
 1330SOL    HW1 4201   1.484   3.661   0.056 -2.9138 -0.0206 -2.4983
 1330SOL    HW2 4202   1.580   3.628  -0.057  0.4165 -0.0378  0.1821
 1331SOL     OW 4203   3.972   0.672   3.569  0.4195  0.1807 -0.1746
 1331SOL    HW1 4204   3.969   0.581   3.598 -0.5117 -0.0510 -0.9446
 1331SOL    HW2 4205   3.886   0.688   3.529  0.1902  1.7069  0.8508
 1332SOL     OW 4206   0.997   2.304   3.063  0.1782  0.2635 -0.1390
 1332SOL    HW1 4207   1.044   2.221   3.058  1.4662  0.8345  1.5537
 1332SOL    HW2 4208   0.906   2.278   3.079  0.6012 -0.8566  0.6483
 1333SOL     OW 4209   1.467   2.636   0.644 -0.0901 -0.3548 -0.0413
 1333SOL    HW1 4210   1.439   2.621   0.553  1.7812  1.9363 -1.1012
 1333SOL    HW2 4211   1.449   2.553   0.688 -0.8243 -1.6536 -2.5558
 1334SOL     OW 4212   3.056   2.302   3.622 -0.8422 -0.2555  0.5486
 1334SOL    HW1 4213   3.076   2.261   3.707 -0.0534 -3.0055 -0.8462
 1334SOL    HW2 4214   2.992   2.244   3.582 -1.4009  1.1487 -0.6698
 1335SOL     OW 4215   1.927   3.432   2.436  0.5956 -0.2213 -0.1480
 1335SOL    HW1 4216   1.903   3.523   2.420 -0.9617 -0.6291 -0.2151
 1335SOL    HW2 4217   1.997   3.437   2.501 -1.2466  0.9238  1.8328
 1336SOL     OW 4218   2.495   2.541   0.242 -0.0118  0.2003 -0.3389
 1336SOL    HW1 4219   2.560   2.554   0.312  0.9321 -0.8395 -0.9895
 1336SOL    HW2 4220   2.544   2.557   0.161 -1.2319  1.9512 -0.7749
 1337SOL     OW 4221   0.778   2.449   0.419  0.0170  0.1130  0.2040
 1337SOL    HW1 4222   0.701   2.392   0.418  0.2627 -0.3327 -2.5429
 1337SOL    HW2 4223   0.743   2.536   0.398  0.1843 -0.0630 -0.8970
 1338SOL     OW 4224   2.205   3.814   1.329  0.2507 -0.0993  0.1957
 1338SOL    HW1 4225   2.205   3.910   1.340 -0.8026 -0.0713  0.1428
 1338SOL    HW2 4226   2.136   3.784   1.388  0.6232 -0.8330  0.2592
 1339SOL     OW 4227   1.898   1.002   0.669  0.0022 -0.3316  0.7192
 1339SOL    HW1 4228   1.808   1.007   0.637  0.0482 -1.2327  0.4492
 1339SOL    HW2 4229   1.930   0.916   0.642  0.8187 -0.1815  1.1520
 1340SOL     OW 4230   0.894   3.870   3.076  0.1906  0.3925 -0.5201
 1340SOL    HW1 4231   0.984   3.848   3.051  0.0325  1.2668 -1.9975
 1340SOL    HW2 4232   0.860   3.918   3.001 -1.8493 -0.7632 -0.3817
 1341SOL     OW 4233   2.364   1.183   3.713 -0.3267  0.0438  0.2908
 1341SOL    HW1 4234   2.310   1.121   3.761  0.3343 -0.8087 -0.0432
 1341SOL    HW2 4235   2.369   1.146   3.625  0.9928 -0.0179  0.3837
 1342SOL     OW 4236   0.386   0.279   1.756 -0.1417 -0.3307  0.3112
 1342SOL    HW1 4237   0.324   0.235   1.697  0.0450  0.2169 -0.3064
 1342SOL    HW2 4238   0.368   0.241   1.842 -2.0787  0.5952  0.3552
 1343SOL     OW 4239   3.192   3.991   0.493  0.2938 -0.6747 -0.3313
 1343SOL    HW1 4240   3.116   4.049   0.506  1.0363  0.0125  1.1593
 1343SOL    HW2 4241   3.204   3.949   0.578  2.8089  0.7893  0.1235
 1344SOL     OW 4242   3.237   3.789   1.217 -0.4411 -0.6985  0.0840
 1344SOL    HW1 4243   3.229   3.701   1.254  2.0103 -0.1456  2.1834
 1344SOL    HW2 4244   3.327   3.794   1.187 -0.9339  0.6720 -1.2642
 1345SOL     OW 4245   2.365   2.658   0.484  0.1355 -0.4524 -0.1832
 1345SOL    HW1 4246   2.413   2.630   0.406  0.6402 -0.1059  0.0019
 1345SOL    HW2 4247   2.429   2.706   0.536 -0.2351 -0.5596  0.3806
 1346SOL     OW 4248   0.741   3.959   3.261  0.0438 -0.4694 -0.5989
 1346SOL    HW1 4249   0.794   3.915   3.195  1.9051 -0.8255  1.0288
 1346SOL    HW2 4250   0.804   3.999   3.320 -1.5452  0.4061  0.5999
 1347SOL     OW 4251   3.917   3.741   2.424 -0.3925  0.3417  0.2742
 1347SOL    HW1 4252   3.825   3.748   2.399 -0.5397  0.6665  0.8781
 1347SOL    HW2 4253   3.952   3.828   2.409  0.4570 -0.3634 -2.3016
 1348SOL     OW 4254   3.244   0.587   0.449 -0.0319  0.3470 -0.0431
 1348SOL    HW1 4255   3.153   0.565   0.472  0.5684  0.4684  2.8243
 1348SOL    HW2 4256   3.246   0.683   0.451  0.0744  0.3559 -0.5335
 1349SOL     OW 4257   3.065   1.285   3.602 -0.0747  0.4783 -0.1604
 1349SOL    HW1 4258   3.083   1.203   3.647 -1.3243 -0.1188 -0.6998
 1349SOL    HW2 4259   3.039   1.259   3.513 -1.4477  1.3651 -0.0537
 1350SOL     OW 4260   0.764   3.295   2.769 -0.5800 -0.3446 -0.2849
 1350SOL    HW1 4261   0.708   3.350   2.825 -0.2887 -1.0054  0.6845
 1350SOL    HW2 4262   0.705   3.259   2.704 -1.2408 -0.8214  0.5623
 1351SOL     OW 4263   1.140   1.081   2.920 -0.1280 -0.1448  0.1171
 1351SOL    HW1 4264   1.047   1.079   2.899 -0.0085  1.0121 -0.6522
 1351SOL    HW2 4265   1.144   1.089   3.015 -0.8543  0.8779  0.0786
 1352SOL     OW 4266   1.203   0.163   2.118 -0.2255 -0.1925  0.3652
 1352SOL    HW1 4267   1.175   0.071   2.119 -1.6392  0.2017 -0.5301
 1352SOL    HW2 4268   1.125   0.211   2.091  0.6277  1.2399  0.3825
 1353SOL     OW 4269   3.712   0.707   3.489  0.1771 -0.5727 -0.3096
 1353SOL    HW1 4270   3.649   0.778   3.502 -0.7197 -1.4776  0.4340
 1353SOL    HW2 4271   3.667   0.629   3.521  0.7039 -1.6948 -2.1407
 1354SOL     OW 4272   1.345   1.346   3.004 -0.1751 -0.2790 -0.3110
 1354SOL    HW1 4273   1.402   1.354   2.928  0.8024 -0.0874  0.4195
 1354SOL    HW2 4274   1.364   1.259   3.039  1.6642  0.7490  1.4452
 1355SOL     OW 4275   3.443   2.682   3.595 -0.6911  0.1573 -0.2736
 1355SOL    HW1 4276   3.423   2.687   3.502 -0.9581 -0.6192 -0.2657
 1355SOL    HW2 4277   3.510   2.613   3.601 -1.2707 -0.3857  0.1884
 1356SOL     OW 4278   3.801   2.667   2.858  0.1668  0.2946  0.5122
 1356SOL    HW1 4279   3.893   2.683   2.882 -0.1974  1.2593  1.3502
 1356SOL    HW2 4280   3.758   2.752   2.871 -0.9860 -0.3208  0.8293
 1357SOL     OW 4281   3.929   4.202   2.348 -0.5803  0.3430  0.1991
 1357SOL    HW1 4282   3.931   4.289   2.388 -1.7948  0.2676  0.4674
 1357SOL    HW2 4283   3.855   4.158   2.390 -0.4483 -0.5544 -0.4747
 1358SOL     OW 4284   3.263   1.928   3.603 -0.1930  0.8011 -0.7244
 1358SOL    HW1 4285   3.204   1.880   3.545  0.8253 -3.2378  1.2132
 1358SOL    HW2 4286   3.224   1.919   3.690  1.5495  0.9847  0.1189
 1359SOL     OW 4287   2.794   2.904   2.245 -0.4351 -0.3734  0.3002
 1359SOL    HW1 4288   2.702   2.931   2.247 -0.2421  0.2631  0.7448
 1359SOL    HW2 4289   2.802   2.842   2.317  0.1478  1.8184  2.2342
 1360SOL     OW 4290   0.042   3.013   4.020  0.7782  0.2265  0.3835
 1360SOL    HW1 4291  -0.030   2.968   3.977  1.7019 -0.2624 -0.6872
 1360SOL    HW2 4292   0.120   2.964   3.995  1.4030  0.0678  2.4115
 1361SOL     OW 4293   2.233   0.195   3.797  0.5773 -0.3123  0.0404
 1361SOL    HW1 4294   2.230   0.109   3.754  0.5123  0.8744 -2.5043
 1361SOL    HW2 4295   2.234   0.258   3.725  0.1990  1.8687  1.8284
 1362SOL     OW 4296   2.514   3.968   4.138  0.7421 -0.4642  0.5764
 1362SOL    HW1 4297   2.484   4.044   4.088  2.1916  1.2057  2.1122
 1362SOL    HW2 4298   2.440   3.946   4.194  0.1576 -0.4611 -0.1835
 1363SOL     OW 4299   1.769   3.553   0.748 -0.2619  0.3133 -0.2968
 1363SOL    HW1 4300   1.830   3.619   0.716 -0.5085  1.3930  1.3545
 1363SOL    HW2 4301   1.816   3.509   0.818 -0.8285  0.0847 -0.0560
 1364SOL     OW 4302   1.680   1.887   0.147 -0.1472  0.2612 -0.6349
 1364SOL    HW1 4303   1.704   1.948   0.217 -1.2282 -0.9184  0.8351
 1364SOL    HW2 4304   1.750   1.897   0.082  1.5680  0.5441  1.1509
 1365SOL     OW 4305   4.122   1.633   3.462  0.7375 -0.1059  0.0079
 1365SOL    HW1 4306   4.035   1.655   3.495  0.6496  1.9567 -1.4217
 1365SOL    HW2 4307   4.161   1.577   3.530 -0.1936  2.1641  2.5638
 1366SOL     OW 4308   2.854   0.019   1.584  0.4714 -0.3089 -0.1696
 1366SOL    HW1 4309   2.806  -0.041   1.641 -1.0914 -1.0361 -2.1282
 1366SOL    HW2 4310   2.830  -0.008   1.495  0.8306  2.3159 -1.1645
 1367SOL     OW 4311   4.062   1.309   2.609  0.2717  0.8894  0.0441
 1367SOL    HW1 4312   4.010   1.300   2.529 -0.5395 -2.0825  0.8077
 1367SOL    HW2 4313   4.104   1.224   2.621  1.3234  1.6268  2.1633
 1368SOL     OW 4314   1.959   2.652   0.265 -0.3951 -0.7011 -0.1736
 1368SOL    HW1 4315   1.877   2.684   0.227 -0.7920  1.3274  2.1287
 1368SOL    HW2 4316   2.027   2.683   0.206 -1.0896  0.7479 -0.2535
 1369SOL     OW 4317   2.776   1.737   0.070  0.2350  0.1890 -0.5336
 1369SOL    HW1 4318   2.681   1.726   0.060  0.4319 -1.3469 -1.0353
 1369SOL    HW2 4319   2.808   1.750  -0.019  0.6990 -1.4132 -0.6275
 1370SOL     OW 4320   2.073   0.163   2.576 -0.6185 -0.3589  0.3700
 1370SOL    HW1 4321   2.011   0.182   2.647  1.4412  3.1897  1.5290
 1370SOL    HW2 4322   2.028   0.192   2.497 -2.3504 -2.8730  0.3407
 1371SOL     OW 4323   2.289   3.927   0.019  0.1159 -0.2747 -0.5427
 1371SOL    HW1 4324   2.324   3.846   0.056  0.5046  0.9935  2.0582
 1371SOL    HW2 4325   2.198   3.929   0.047  0.3841  0.6518  0.3287
 1372SOL     OW 4326   3.378   3.351   4.137 -0.0888  0.0118 -0.0358
 1372SOL    HW1 4327   3.438   3.383   4.070 -0.3331  1.4106  0.3998
 1372SOL    HW2 4328   3.432   3.345   4.216 -0.6603  1.9888  0.5402
 1373SOL     OW 4329   2.654   0.662   1.243  0.0502  0.5355  0.4757
 1373SOL    HW1 4330   2.619   0.720   1.310 -0.4665 -0.1392  0.8021
 1373SOL    HW2 4331   2.739   0.633   1.278 -0.9482 -1.1404  1.6572
 1374SOL     OW 4332   3.997   3.279   4.104  0.9056  0.4022  0.4868
 1374SOL    HW1 4333   3.991   3.196   4.057  1.1567 -0.0408  1.2134
 1374SOL    HW2 4334   3.969   3.345   4.041  3.0442  0.0539 -0.9429
 1375SOL     OW 4335   3.625   3.227   2.220  0.3142  0.4295  0.4316
 1375SOL    HW1 4336   3.604   3.183   2.302  0.2392 -1.1628 -0.3963
 1375SOL    HW2 4337   3.604   3.162   2.152 -1.2872  2.2782 -0.9650
 1376SOL     OW 4338   3.767   3.623   0.756 -0.2168 -0.3183 -0.0786
 1376SOL    HW1 4339   3.710   3.684   0.804 -0.1821  0.1377 -0.5977
 1376SOL    HW2 4340   3.754   3.647   0.664  1.1286  0.0821 -0.1845
 1377SOL     OW 4341   2.899   0.920   3.695 -0.5832  0.1714  0.2295
 1377SOL    HW1 4342   2.862   1.007   3.677 -0.4415  0.1387 -0.2454
 1377SOL    HW2 4343   2.823   0.863   3.705 -0.6761  0.3425  0.5069
 1378SOL     OW 4344   2.817   1.747   1.521 -0.0628 -0.2894 -0.0464
 1378SOL    HW1 4345   2.725   1.771   1.524  0.0248 -0.0050  0.7151
 1378SOL    HW2 4346   2.817   1.652   1.520 -0.3779 -0.2962 -1.3344
 1379SOL     OW 4347   2.978   1.648   2.504  0.3773  0.5443 -0.0445
 1379SOL    HW1 4348   2.900   1.657   2.559 -0.9304  2.5402 -2.0465
 1379SOL    HW2 4349   3.034   1.721   2.530  0.2513  0.8349 -0.5731
 1380SOL     OW 4350   3.045   2.199   4.068 -0.1925  0.0186 -0.4037
 1380SOL    HW1 4351   3.028   2.111   4.100  1.1330 -1.0134 -2.3198
 1380SOL    HW2 4352   2.959   2.240   4.060 -0.6760  0.3979  4.1926
 1381SOL     OW 4353   3.062   2.546   3.858 -0.1866 -0.1099  0.3474
 1381SOL    HW1 4354   3.078   2.458   3.822 -0.1048 -0.4415  1.1733
 1381SOL    HW2 4355   3.098   2.542   3.946 -1.2066  0.3974  0.8013
 1382SOL     OW 4356   0.235   3.215   0.504 -0.1941 -0.5464  0.1871
 1382SOL    HW1 4357   0.219   3.121   0.495  0.8979 -0.8616  1.1301
 1382SOL    HW2 4358   0.164   3.257   0.456  1.1013 -1.8616 -3.1366
 1383SOL     OW 4359   2.069   1.892   0.411 -0.6774  0.0628 -0.0862
 1383SOL    HW1 4360   2.082   1.801   0.437  0.7354  0.2481 -0.0708
 1383SOL    HW2 4361   2.015   1.930   0.481 -0.4777 -0.5220  0.3921
 1384SOL     OW 4362   1.971   1.299   3.560  0.3635 -0.5844 -0.4873
 1384SOL    HW1 4363   1.906   1.311   3.629 -1.3241 -1.2791 -1.8960
 1384SOL    HW2 4364   2.007   1.386   3.545 -2.9542  0.6678 -2.2008
 1385SOL     OW 4365   3.817   1.685   0.212  0.9337  0.1128 -0.0051
 1385SOL    HW1 4366   3.843   1.617   0.150  1.2989  1.4811 -1.4133
 1385SOL    HW2 4367   3.898   1.710   0.255  0.7370 -0.5797  0.8026
 1386SOL     OW 4368   2.640   0.044   3.857  0.5321 -0.1721 -0.3508
 1386SOL    HW1 4369   2.697   0.117   3.881  0.5874  0.3459 -1.9533
 1386SOL    HW2 4370   2.700  -0.025   3.829  0.5100 -1.1075  1.7480
 1387SOL     OW 4371   3.831   0.963   1.054  0.3221  0.0320  0.1202
 1387SOL    HW1 4372   3.875   1.007   1.126  2.2252 -0.6276 -0.5692
 1387SOL    HW2 4373   3.902   0.918   1.007 -1.0401 -0.6479 -1.3664
 1388SOL     OW 4374   3.246   2.844   1.397 -0.4278 -0.7026 -0.3391
 1388SOL    HW1 4375   3.238   2.768   1.455 -1.8083  0.5578  1.2201
 1388SOL    HW2 4376   3.338   2.870   1.405 -0.2809 -1.3630  0.2214
 1389SOL     OW 4377   3.196   3.981   2.278 -0.0067  0.3373 -0.2797
 1389SOL    HW1 4378   3.107   3.963   2.248  0.1526 -1.0915  0.0368
 1389SOL    HW2 4379   3.210   4.074   2.258 -1.1841  0.3183 -1.2904
 1390SOL     OW 4380   2.233   3.561   3.111 -0.6516  0.3241 -0.0239
 1390SOL    HW1 4381   2.142   3.576   3.137 -0.5036 -1.2372  1.7012
 1390SOL    HW2 4382   2.249   3.469   3.133  1.1324  0.3489 -0.9969
 1391SOL     OW 4383   2.906   3.740   3.906  0.2332  0.2286 -0.1896
 1391SOL    HW1 4384   2.821   3.715   3.869 -0.1991 -0.2186  1.0663
 1391SOL    HW2 4385   2.969   3.723   3.835 -0.5910 -0.4759 -0.7669
 1392SOL     OW 4386   2.936   1.236   1.647  0.1127 -0.0673 -0.7676
 1392SOL    HW1 4387   2.957   1.150   1.684  0.5621 -0.0416 -0.9595
 1392SOL    HW2 4388   2.975   1.235   1.560 -0.9622 -0.1284 -1.2597
 1393SOL     OW 4389   1.525   4.200   1.674  0.1756 -0.1149 -0.2436
 1393SOL    HW1 4390   1.444   4.250   1.681 -1.0323 -1.7300 -1.7065
 1393SOL    HW2 4391   1.518   4.134   1.744 -0.0791 -0.6243 -0.7402
 1394SOL     OW 4392   3.733   1.508   0.876  0.1063 -0.2208 -0.0043
 1394SOL    HW1 4393   3.675   1.539   0.808 -0.1643 -0.4013  0.1426
 1394SOL    HW2 4394   3.816   1.490   0.831 -0.2588 -0.9368 -0.3966
 1395SOL     OW 4395   0.513   2.322   4.140 -0.4710  0.0675 -0.6106
 1395SOL    HW1 4396   0.534   2.387   4.073  0.0514 -0.9296 -1.4370
 1395SOL    HW2 4397   0.592   2.316   4.194 -0.0322 -0.8039 -1.3234
 1396SOL     OW 4398   2.486   1.189   3.064 -0.3072  0.4251  0.2202
 1396SOL    HW1 4399   2.426   1.225   2.999  1.3535 -0.7021 -2.0945
 1396SOL    HW2 4400   2.561   1.248   3.063  0.2915 -0.3150  0.0946
 1397SOL     OW 4401   0.990   1.615   3.043  0.0726  0.0262 -0.3252
 1397SOL    HW1 4402   1.036   1.687   3.000 -0.0162  1.1392  1.3312
 1397SOL    HW2 4403   0.916   1.656   3.088 -0.4122 -1.2041  0.0586
 1398SOL     OW 4404   0.181   3.744   1.849  0.5129  0.3977 -0.0612
 1398SOL    HW1 4405   0.252   3.687   1.818 -2.1436 -1.7413 -3.0344
 1398SOL    HW2 4406   0.156   3.707   1.934 -0.8868 -2.9635 -1.7305
 1399SOL     OW 4407   2.920   0.124   2.979  0.0773  0.2974  0.2198
 1399SOL    HW1 4408   2.912   0.091   2.889  0.6716 -0.1289  0.3222
 1399SOL    HW2 4409   3.011   0.154   2.986 -0.2748  1.4171  0.3224
 1400SOL     OW 4410   1.827   0.878   2.957 -0.0033 -0.2817 -0.2709
 1400SOL    HW1 4411   1.904   0.829   2.930  0.0411 -0.4596  0.1777
 1400SOL    HW2 4412   1.849   0.970   2.939  0.4761 -0.2920  0.2417
 1401SOL     OW 4413   4.080   2.243   1.243  0.6237 -0.0922 -0.3467
 1401SOL    HW1 4414   4.068   2.151   1.217  0.1623 -0.1918  0.2043
 1401SOL    HW2 4415   4.010   2.290   1.198 -0.2724 -0.2882  0.8192
 1402SOL     OW 4416   0.758   1.120   0.122 -0.2326  0.4381  0.7809
 1402SOL    HW1 4417   0.801   1.120   0.207  1.0041  1.2395  0.1861
 1402SOL    HW2 4418   0.699   1.195   0.125 -1.3520 -0.4333  1.4572
 1403SOL     OW 4419   3.451   0.904   0.782  0.0344 -0.4680 -0.0553
 1403SOL    HW1 4420   3.382   0.947   0.731 -1.9422 -0.5126  2.3983
 1403SOL    HW2 4421   3.517   0.971   0.796 -0.0694 -0.0569 -1.4179
 1404SOL     OW 4422   3.220   1.660   3.791  0.4128  0.3348 -0.5590
 1404SOL    HW1 4423   3.307   1.639   3.756  0.6307 -0.3973  0.3765
 1404SOL    HW2 4424   3.159   1.613   3.733  0.8288 -1.8037  0.6385
 1405SOL     OW 4425   3.514   0.873   3.563  0.3371  0.0711 -0.6434
 1405SOL    HW1 4426   3.443   0.817   3.533 -0.4850  1.1732 -0.7829
 1405SOL    HW2 4427   3.479   0.917   3.641  1.2470 -0.1880 -0.0716
 1406SOL     OW 4428   3.921   2.891   1.005  0.2406  0.4716 -0.5251
 1406SOL    HW1 4429   3.902   2.946   0.929  1.3193  1.0900 -0.3624
 1406SOL    HW2 4430   3.851   2.911   1.068  0.3520  1.3003 -0.6602
 1407SOL     OW 4431   3.838   3.031   3.960  0.4479 -0.0950 -0.1479
 1407SOL    HW1 4432   3.838   2.936   3.950  1.7453 -0.1008 -0.2030
 1407SOL    HW2 4433   3.881   3.064   3.881  2.8484  0.3353  1.2572
 1408SOL     OW 4434   3.428   2.814   2.603 -0.4214 -0.0817  0.0003
 1408SOL    HW1 4435   3.391   2.858   2.679 -0.1753 -0.2674  0.2293
 1408SOL    HW2 4436   3.388   2.858   2.528  1.0086  1.6399  0.1779
 1409SOL     OW 4437   1.488   1.574   3.754 -0.6470  0.1771  0.2075
 1409SOL    HW1 4438   1.511   1.662   3.785 -1.3883  0.6558 -0.5503
 1409SOL    HW2 4439   1.571   1.526   3.753 -0.2743  0.7856  0.8652
 1410SOL     OW 4440   3.146   3.497   3.281 -0.0540 -0.0622  0.4353
 1410SOL    HW1 4441   3.146   3.424   3.343  0.3007 -0.4889 -0.0588
 1410SOL    HW2 4442   3.234   3.534   3.287  0.5003 -1.0432 -0.8690
 1411SOL     OW 4443   4.063   2.355   2.848 -0.0707 -0.4544  0.5908
 1411SOL    HW1 4444   4.071   2.297   2.923  0.4999 -0.2458  0.6966
 1411SOL    HW2 4445   4.083   2.442   2.883 -1.8779 -0.0154  0.6628
 1412SOL     OW 4446   2.454   3.553   0.842 -0.1621 -0.0878 -0.3266
 1412SOL    HW1 4447   2.435   3.637   0.801 -1.1249 -0.0985  0.0724
 1412SOL    HW2 4448   2.477   3.574   0.932 -0.5917 -0.2646 -0.1746
 1413SOL     OW 4449   3.865   0.148   3.101 -0.1083  0.4153  0.1505
 1413SOL    HW1 4450   3.824   0.210   3.161 -2.5967 -0.2907 -0.7120
 1413SOL    HW2 4451   3.931   0.103   3.154  0.5785  2.5740  1.2320
 1414SOL     OW 4452   0.197   1.705   3.321 -0.0447  0.3463 -0.0896
 1414SOL    HW1 4453   0.182   1.733   3.231  1.5947  1.9353  0.0715
 1414SOL    HW2 4454   0.158   1.618   3.326 -0.4386  0.3422 -2.2341
 1415SOL     OW 4455   1.788   3.055   3.242 -0.1740  0.2116 -0.0470
 1415SOL    HW1 4456   1.828   2.989   3.300  0.0796  0.3315 -0.0834
 1415SOL    HW2 4457   1.768   3.128   3.300 -0.9596 -0.1083  0.0937
 1416SOL     OW 4458   3.721   3.734   3.140  0.0685  0.0362  0.0187
 1416SOL    HW1 4459   3.732   3.815   3.190  1.1096  0.0395 -0.1922
 1416SOL    HW2 4460   3.757   3.753   3.054 -1.3799 -0.0855 -0.6482
 1417SOL     OW 4461   3.425   2.570   3.969  0.3944  0.2565  0.4510
 1417SOL    HW1 4462   3.369   2.517   3.912  3.0566 -0.3510 -1.7769
 1417SOL    HW2 4463   3.404   2.540   4.058 -1.7657 -0.9045 -0.3827
 1418SOL     OW 4464   1.881   3.617   1.333 -0.0489  0.3530 -0.2289
 1418SOL    HW1 4465   1.918   3.674   1.400  0.0521  0.3097 -0.2471
 1418SOL    HW2 4466   1.910   3.529   1.358  1.3680  0.5159 -1.2327
 1419SOL     OW 4467   1.803   2.497   3.666 -0.1480 -0.3375  0.5318
 1419SOL    HW1 4468   1.760   2.437   3.605 -1.0290  1.5360 -0.7582
 1419SOL    HW2 4469   1.892   2.505   3.633 -0.8724  1.4119 -1.1941
 1420SOL     OW 4470   2.449   2.652   1.426  0.0163 -0.1810  0.1378
 1420SOL    HW1 4471   2.522   2.674   1.368 -0.9736  0.8540 -0.7545
 1420SOL    HW2 4472   2.461   2.559   1.446  2.4215  0.2889  1.2654
 1421SOL     OW 4473   3.021   1.178   3.090  0.1527 -0.4383 -0.5484
 1421SOL    HW1 4474   3.067   1.103   3.053  0.4065 -0.9672  0.7745
 1421SOL    HW2 4475   2.928   1.156   3.079  0.2254 -0.6263 -0.7995
 1422SOL     OW 4476   0.714   0.148   4.147  0.1609  0.2837 -0.1177
 1422SOL    HW1 4477   0.809   0.148   4.150  0.1820 -1.1468  0.1688
 1422SOL    HW2 4478   0.691   0.227   4.099  1.5673 -0.3046 -1.8834
 1423SOL     OW 4479   2.979   2.760   2.482  0.0413  0.4357  0.1501
 1423SOL    HW1 4480   2.993   2.693   2.548 -3.5318 -2.2495 -1.5278
 1423SOL    HW2 4481   2.993   2.715   2.399 -0.5102  2.3529 -1.0406
 1424SOL     OW 4482   2.950   0.987   1.720  0.5265  0.3428 -0.1296
 1424SOL    HW1 4483   3.036   0.950   1.739  0.1648  0.0039  0.8929
 1424SOL    HW2 4484   2.891   0.947   1.783 -0.1573  1.5332  0.0309
 1425SOL     OW 4485   2.790   3.460   3.539 -0.3794 -1.1882 -0.2366
 1425SOL    HW1 4486   2.884   3.450   3.552  0.0624 -1.4252 -3.0724
 1425SOL    HW2 4487   2.780   3.542   3.490 -1.7562 -0.7031  0.7835
 1426SOL     OW 4488   3.668   3.255   1.098  0.0267 -0.0625  0.2941
 1426SOL    HW1 4489   3.605   3.288   1.034  0.1721  1.7606  1.0405
 1426SOL    HW2 4490   3.753   3.286   1.067  0.2386 -0.1578  0.7648
 1427SOL     OW 4491   2.167   2.877   3.164 -0.3660  0.4342 -0.7100
 1427SOL    HW1 4492   2.131   2.803   3.214  1.2211 -1.4075 -2.1067
 1427SOL    HW2 4493   2.097   2.902   3.105 -0.8992 -0.0304 -0.2865
 1428SOL     OW 4494   2.712   3.099   3.457  0.1108  0.0634 -0.3000
 1428SOL    HW1 4495   2.794   3.053   3.477  0.0069  0.0153  0.0079
 1428SOL    HW2 4496   2.702   3.162   3.528 -1.2567 -1.4104  0.8837
 1429SOL     OW 4497   0.514   2.386   3.338  0.1821 -0.8520  0.2693
 1429SOL    HW1 4498   0.467   2.304   3.324 -0.0586 -1.1438  2.4123
 1429SOL    HW2 4499   0.606   2.363   3.324 -0.1551 -0.3405 -3.6711
 1430SOL     OW 4500   3.541   0.589   1.840  0.5189  0.2818 -0.1960
 1430SOL    HW1 4501   3.457   0.633   1.830  0.5271 -0.0641 -2.1176
 1430SOL    HW2 4502   3.522   0.497   1.822  1.4803  0.3668 -1.8444
 1431SOL     OW 4503   1.281   0.858   0.956 -0.2788 -0.0188 -0.0962
 1431SOL    HW1 4504   1.376   0.858   0.961 -0.3322 -0.2728  1.1675
 1431SOL    HW2 4505   1.252   0.835   1.044 -1.5354  1.5487 -0.0553
 1432SOL     OW 4506   1.525   3.650   0.890  0.1481  0.3370  0.2072
 1432SOL    HW1 4507   1.478   3.566   0.891 -1.2563  1.0951  0.6552
 1432SOL    HW2 4508   1.608   3.630   0.846 -0.3602 -1.1706 -0.1476
 1433SOL     OW 4509   2.948   1.282   2.769 -0.1325 -0.0717  0.4664
 1433SOL    HW1 4510   2.997   1.337   2.708 -1.1824  0.9335  0.4878
 1433SOL    HW2 4511   2.972   1.193   2.746 -0.1083  0.3054 -1.0706
 1434SOL     OW 4512   3.013   2.872   3.020 -0.0501 -0.0119  0.7050
 1434SOL    HW1 4513   2.942   2.852   3.082 -0.5148  1.3756  0.6526
 1434SOL    HW2 4514   3.086   2.899   3.075 -0.0647  0.0314  0.7035
 1435SOL     OW 4515   3.863   1.319   1.431 -0.6723  0.2251  0.2182
 1435SOL    HW1 4516   3.793   1.257   1.451 -1.0518  0.2431 -0.9242
 1435SOL    HW2 4517   3.819   1.404   1.428 -0.4865  0.3178  0.1074
 1436SOL     OW 4518   3.668   1.782   1.150  0.1500  0.4595  0.3933
 1436SOL    HW1 4519   3.702   1.808   1.064 -0.0984 -1.3427 -0.2987
 1436SOL    HW2 4520   3.683   1.688   1.154 -1.3250  0.2371  1.6465
 1437SOL     OW 4521   0.490   1.748   3.380 -0.0734 -0.0621  0.1048
 1437SOL    HW1 4522   0.507   1.840   3.401  1.8326 -0.3539 -0.0598
 1437SOL    HW2 4523   0.394   1.742   3.376 -0.2277  1.9899 -0.2554
 1438SOL     OW 4524   2.606   2.935   2.833 -0.0314  0.2327 -0.8602
 1438SOL    HW1 4525   2.572   3.024   2.833  3.5687  1.7580  0.6979
 1438SOL    HW2 4526   2.565   2.893   2.908 -2.8821 -0.0826 -2.4268
 1439SOL     OW 4527   2.326   1.997   0.786 -0.4304  0.3548 -0.3013
 1439SOL    HW1 4528   2.290   1.924   0.835 -0.1174  0.4721  0.1090
 1439SOL    HW2 4529   2.367   1.956   0.709 -1.2872  0.2107 -0.6938
 1440SOL     OW 4530   1.452   0.714   2.837  0.3687  0.1196  0.2658
 1440SOL    HW1 4531   1.408   0.727   2.753  0.8144 -0.4828 -0.0627
 1440SOL    HW2 4532   1.531   0.665   2.817  0.2665 -0.4133  1.0870
 1441SOL     OW 4533   3.318   4.120   1.439 -0.2930  0.2608  0.0075
 1441SOL    HW1 4534   3.237   4.069   1.437  0.5461 -1.1481 -1.9212
 1441SOL    HW2 4535   3.381   4.066   1.393  1.8821  1.1680  1.7602
 1442SOL     OW 4536   3.803   2.454   2.667 -0.0510 -0.4942 -0.3636
 1442SOL    HW1 4537   3.796   2.545   2.694 -0.1758 -0.3708 -0.8158
 1442SOL    HW2 4538   3.891   2.428   2.695  0.0898 -0.1538 -0.4804
 1443SOL     OW 4539   3.571   0.568   3.798  0.4620 -0.6217  0.6917
 1443SOL    HW1 4540   3.515   0.545   3.872 -0.4867  1.1435  0.5798
 1443SOL    HW2 4541   3.569   0.663   3.795  0.2552 -0.6371 -1.7565
 1444SOL     OW 4542   1.228   0.372   1.888  0.5676 -0.7270 -0.1794
 1444SOL    HW1 4543   1.142   0.378   1.931  1.1537 -0.6528  1.0330
 1444SOL    HW2 4544   1.290   0.368   1.961  1.6927  0.5821 -1.0244
 1445SOL     OW 4545   3.948   1.437   0.660 -0.0933  0.8869 -0.2027
 1445SOL    HW1 4546   4.029   1.488   0.662 -0.8962  2.2356 -0.8079
 1445SOL    HW2 4547   3.893   1.481   0.596 -1.5314  0.3406  0.5952
 1446SOL     OW 4548   3.776   0.789   0.042 -0.0704 -0.8847  0.5936
 1446SOL    HW1 4549   3.862   0.805   0.079 -0.1412 -0.0078  0.3853
 1446SOL    HW2 4550   3.740   0.717   0.095  1.1245 -1.8568  0.1196
 1447SOL     OW 4551   3.017   0.789   3.359 -0.0703  0.3607 -0.7070
 1447SOL    HW1 4552   3.022   0.822   3.270 -0.2002 -0.1592 -0.9094
 1447SOL    HW2 4553   2.940   0.832   3.397 -0.8708 -0.5240 -1.3085
 1448SOL     OW 4554   2.028   2.423   3.507  0.0740  0.1562  0.3533
 1448SOL    HW1 4555   2.029   2.361   3.434  0.1715  0.1946  0.3213
 1448SOL    HW2 4556   2.118   2.454   3.514  0.2896 -0.6078  1.1478
 1449SOL     OW 4557   0.699   3.808   0.540  0.2676 -0.2320 -0.3239
 1449SOL    HW1 4558   0.680   3.869   0.469  0.7443  0.0025 -0.2572
 1449SOL    HW2 4559   0.762   3.746   0.503 -0.8397 -1.2049 -0.6493
 1450SOL     OW 4560   2.203   0.999   3.823 -0.8039 -0.0244 -0.6156
 1450SOL    HW1 4561   2.126   1.046   3.856  0.0854  2.5265 -1.8800
 1450SOL    HW2 4562   2.244   0.963   3.902 -1.3795  1.6957  0.5433
 1451SOL     OW 4563   3.065   3.388   3.604 -0.4040 -0.1087 -0.4907
 1451SOL    HW1 4564   3.071   3.474   3.646 -0.4348  0.4679 -1.6328
 1451SOL    HW2 4565   3.155   3.355   3.602 -0.0498  0.8871 -2.0401
 1452SOL     OW 4566   4.094   1.309   3.297  0.1864 -0.1449  0.1128
 1452SOL    HW1 4567   4.001   1.330   3.303 -0.2605 -2.0917  0.7287
 1452SOL    HW2 4568   4.138   1.375   3.352 -1.0725 -0.5512  1.6747
 1453SOL     OW 4569   2.943   0.255   3.301  0.4139 -0.2187  0.0010
 1453SOL    HW1 4570   2.852   0.256   3.272  0.9420 -1.8633 -1.9545
 1453SOL    HW2 4571   2.995   0.263   3.220  2.0626  1.8207  1.1457
 1454SOL     OW 4572   3.243   2.369   3.219 -0.8393  0.1764 -0.0558
 1454SOL    HW1 4573   3.232   2.332   3.132 -1.5411 -1.3315  0.6401
 1454SOL    HW2 4574   3.216   2.299   3.279 -0.1319  1.0812  1.3839
 1455SOL     OW 4575   2.938   3.498   2.243  0.3451  0.0528  0.9835
 1455SOL    HW1 4576   2.859   3.444   2.252 -0.5079  0.6965 -1.7812
 1455SOL    HW2 4577   2.995   3.448   2.185  0.9826  0.6356  1.1000
 1456SOL     OW 4578   3.679   0.365   2.824 -0.0671 -0.0475  0.0537
 1456SOL    HW1 4579   3.744   0.304   2.858  0.0440 -0.6077 -1.1192
 1456SOL    HW2 4580   3.629   0.314   2.760 -1.6536  0.3752  0.8984
 1457SOL     OW 4581   3.669   2.408   0.592 -0.0699 -0.0880 -0.5545
 1457SOL    HW1 4582   3.618   2.355   0.652  0.3760 -0.0087 -0.1022
 1457SOL    HW2 4583   3.759   2.378   0.603  0.6010  2.2730  1.4309
 1458SOL     OW 4584   2.630   0.758   3.094  0.2351  0.8936  0.1919
 1458SOL    HW1 4585   2.547   0.761   3.140 -0.4144 -1.1245 -0.6960
 1458SOL    HW2 4586   2.611   0.710   3.013  1.7741  2.4201 -1.1564
 1459SOL     OW 4587   2.137   0.488   2.340 -0.3107  0.5421 -0.2096
 1459SOL    HW1 4588   2.120   0.486   2.434 -0.3595  0.4701 -0.2202
 1459SOL    HW2 4589   2.077   0.424   2.303  1.5376 -1.4465 -0.0109
 1460SOL     OW 4590   3.130   3.591   2.412 -0.5269 -0.3748 -0.7483
 1460SOL    HW1 4591   3.111   3.540   2.491  0.5203 -0.0239 -0.2510
 1460SOL    HW2 4592   3.056   3.574   2.354 -0.8957 -1.3128 -0.0278
 1461SOL     OW 4593   1.485   1.734   0.288 -0.2862  0.4377 -0.2819
 1461SOL    HW1 4594   1.547   1.769   0.223 -0.1931  0.0960 -0.3786
 1461SOL    HW2 4595   1.487   1.798   0.359  1.1136 -0.1755  0.2701
 1462SOL     OW 4596   1.986   3.744   3.877  0.2505 -0.2619  0.2023
 1462SOL    HW1 4597   2.030   3.739   3.962  0.8402  1.9662  0.0935
 1462SOL    HW2 4598   2.057   3.762   3.815 -0.5828  2.0450 -0.1725
 1463SOL     OW 4599   1.474   1.545   3.435  0.0675 -0.3870 -0.0898
 1463SOL    HW1 4600   1.548   1.590   3.476  0.5333 -1.4546  0.2836
 1463SOL    HW2 4601   1.409   1.613   3.422  0.6357  0.3366  0.7289
 1464SOL     OW 4602   0.958   1.080   3.675  0.5721  0.1211 -0.0225
 1464SOL    HW1 4603   0.910   1.015   3.726 -0.7190  1.7769  0.9559
 1464SOL    HW2 4604   0.893   1.118   3.616  1.5413 -0.1321 -1.3104
 1465SOL     OW 4605   1.273   3.768   2.479  0.5979 -0.3837  0.0306
 1465SOL    HW1 4606   1.292   3.850   2.526  2.5774 -1.3921  1.0846
 1465SOL    HW2 4607   1.294   3.787   2.388 -0.6290  0.7746 -0.0463
 1466SOL     OW 4608   3.192   0.742   2.864 -0.6966 -0.5908  0.0794
 1466SOL    HW1 4609   3.174   0.721   2.773  1.1756 -0.8940 -0.2687
 1466SOL    HW2 4610   3.287   0.734   2.872 -0.7858 -0.2707  1.9853
 1467SOL     OW 4611   0.998   0.764   2.212 -0.1145  0.0260  0.7166
 1467SOL    HW1 4612   0.986   0.810   2.129  0.0201 -0.8633  0.1878
 1467SOL    HW2 4613   0.984   0.672   2.191  1.6445 -0.4288  1.2915
 1468SOL     OW 4614   3.645   3.822   0.013 -0.0433 -0.5125  0.6942
 1468SOL    HW1 4615   3.736   3.794   0.023  0.7393  1.5304 -0.1520
 1468SOL    HW2 4616   3.616   3.841   0.103  0.5576 -0.6572  0.9247
 1469SOL     OW 4617   2.072   0.548   0.466  0.3331  0.2079 -0.0469
 1469SOL    HW1 4618   2.166   0.533   0.457  0.0417 -1.6417 -0.5045
 1469SOL    HW2 4619   2.041   0.473   0.516 -0.8823  0.8857  0.2530
 1470SOL     OW 4620   1.667   1.017   4.134 -0.3207 -0.1616  0.4375
 1470SOL    HW1 4621   1.624   1.045   4.053 -0.1275 -1.7512 -0.2583
 1470SOL    HW2 4622   1.610   1.049   4.204 -1.3904 -0.2275 -0.3842
 1471SOL     OW 4623   3.399   0.101   0.937  0.6766 -0.0553 -0.1915
 1471SOL    HW1 4624   3.361   0.168   0.881  2.8787  1.1043 -0.4210
 1471SOL    HW2 4625   3.467   0.061   0.883 -0.1345 -2.0364  0.1894
 1472SOL     OW 4626   0.050   3.156   3.463 -0.6378 -0.3447 -0.1452
 1472SOL    HW1 4627   0.025   3.133   3.373 -0.0764 -2.8897  0.2658
 1472SOL    HW2 4628   0.140   3.125   3.471 -1.4004 -2.2470  1.9236
 1473SOL     OW 4629   1.101   1.793   3.988  0.1827  0.6030 -0.0117
 1473SOL    HW1 4630   1.097   1.774   4.082  0.4755  1.9329  0.2968
 1473SOL    HW2 4631   1.025   1.851   3.973  0.4302  0.8077 -0.4867
 1474SOL     OW 4632   0.029   2.010   1.780 -0.6135  0.1648 -0.4306
 1474SOL    HW1 4633   0.051   1.949   1.710 -1.5006 -0.6642 -0.0051
 1474SOL    HW2 4634  -0.008   2.086   1.734 -1.3763 -0.4538 -0.8552
 1475SOL     OW 4635   3.418   2.274   1.843 -0.2009  0.1529  0.1476
 1475SOL    HW1 4636   3.398   2.184   1.870  4.7653 -1.5109 -0.7546
 1475SOL    HW2 4637   3.487   2.303   1.904  2.9142  0.7236 -3.3141
 1476SOL     OW 4638   2.439   2.965   4.114  0.1670 -0.1129 -0.0989
 1476SOL    HW1 4639   2.515   3.022   4.126 -0.0762  0.2936 -0.4797
 1476SOL    HW2 4640   2.430   2.920   4.199  0.2153  0.5952  0.2883
 1477SOL     OW 4641   4.257   1.863   3.380  0.9708  0.0363  0.1158
 1477SOL    HW1 4642   4.199   1.793   3.410 -0.8701 -0.2795 -3.6164
 1477SOL    HW2 4643   4.345   1.824   3.384  0.0879 -2.3505 -1.1858
 1478SOL     OW 4644   0.119   1.305   4.147  0.1851  0.2331  0.3353
 1478SOL    HW1 4645   0.095   1.218   4.115  1.7108 -0.0279 -0.1734
 1478SOL    HW2 4646   0.097   1.304   4.240  1.3001 -1.1455  0.6158
 1479SOL     OW 4647   2.909   3.783   3.534 -0.1370  0.5581 -0.0204
 1479SOL    HW1 4648   2.937   3.748   3.450 -1.8633  0.6935 -0.6894
 1479SOL    HW2 4649   2.987   3.778   3.589  0.2234 -2.5211 -0.6326
 1480SOL     OW 4650   1.914   2.957   0.880 -0.5120  0.5239  0.2540
 1480SOL    HW1 4651   1.980   2.889   0.876 -1.2996 -0.2599  0.2404
 1480SOL    HW2 4652   1.876   2.960   0.792 -0.6496  0.8035  0.3189
 1481SOL     OW 4653   1.312   2.720   1.362  0.7051  0.0021 -0.2265
 1481SOL    HW1 4654   1.319   2.745   1.454  0.9770  0.4040 -0.3522
 1481SOL    HW2 4655   1.366   2.784   1.315 -1.6860  1.5774 -0.9806
 1482SOL     OW 4656   0.783   3.109   3.992  0.3224 -0.2743 -0.2959
 1482SOL    HW1 4657   0.838   3.182   4.020 -0.3193 -0.1809  0.8048
 1482SOL    HW2 4658   0.845   3.041   3.963  1.0242 -0.1236  0.7808
 1483SOL     OW 4659   2.462   1.949   1.400 -0.5182  0.2919 -0.3455
 1483SOL    HW1 4660   2.496   1.971   1.313  0.2294 -2.0904 -0.7225
 1483SOL    HW2 4661   2.379   1.905   1.383  0.0114 -0.8929  0.0762
 1484SOL     OW 4662   0.686   0.946   3.740 -0.0152  0.1713  0.6472
 1484SOL    HW1 4663   0.615   0.970   3.680 -0.1012  1.0738  1.0970
 1484SOL    HW2 4664   0.688   1.016   3.804  0.9113 -0.1416  0.9755
 1485SOL     OW 4665   1.910   1.074   1.576 -0.2597  0.1349  0.5744
 1485SOL    HW1 4666   1.904   1.141   1.645 -1.0450  1.4388 -0.6924
 1485SOL    HW2 4667   1.856   1.002   1.608 -0.6409  0.7258  1.3124
 1486SOL     OW 4668   3.222   3.168   0.992  0.1077 -0.3255  0.1948
 1486SOL    HW1 4669   3.187   3.174   1.081 -0.6033 -0.4890 -0.0637
 1486SOL    HW2 4670   3.312   3.200   0.999  1.2770 -3.5214  1.6623
 1487SOL     OW 4671   0.105   0.847   0.019 -0.1837 -0.2172 -0.1858
 1487SOL    HW1 4672   0.135   0.793   0.092  1.3622  1.4824  0.5367
 1487SOL    HW2 4673   0.184   0.860  -0.035 -0.8195  0.2315 -1.0332
 1488SOL     OW 4674   3.284   0.369   1.630 -0.2072 -0.4692  0.0947
 1488SOL    HW1 4675   3.216   0.302   1.626 -1.4344  0.7557 -0.1924
 1488SOL    HW2 4676   3.316   0.376   1.540 -1.4498  0.6635 -0.2904
 1489SOL     OW 4677   3.530   3.083   2.023  0.0048 -0.3899  0.3950
 1489SOL    HW1 4678   3.528   3.086   1.928 -0.8039  0.7120  0.4240
 1489SOL    HW2 4679   3.536   2.990   2.045  0.5937 -0.6272 -0.7189
 1490SOL     OW 4680   2.327   0.472   1.064  0.3929  0.4291  0.2251
 1490SOL    HW1 4681   2.244   0.481   1.111  0.6532  1.2522  0.5548
 1490SOL    HW2 4682   2.368   0.394   1.103 -0.8625 -0.9151 -0.9944
 1491SOL     OW 4683   0.226   1.436   0.440  0.0844 -0.5682  0.5620
 1491SOL    HW1 4684   0.187   1.474   0.361  1.6976 -2.1710 -1.1207
 1491SOL    HW2 4685   0.274   1.509   0.480  0.5185 -0.0394 -0.8355
 1492SOL     OW 4686   1.344   4.076   2.828  0.3719 -0.4530 -0.1098
 1492SOL    HW1 4687   1.260   4.043   2.796 -0.0434 -0.0145  0.5017
 1492SOL    HW2 4688   1.350   4.042   2.917  0.3661  0.3350  0.2020
 1493SOL     OW 4689   2.752   0.088   0.375 -0.3440 -0.3719  0.1215
 1493SOL    HW1 4690   2.722   0.008   0.331  0.9971 -1.2508  0.7367
 1493SOL    HW2 4691   2.800   0.056   0.451  1.3787  0.9730 -0.3479
 1494SOL     OW 4692   0.650   0.216   3.208 -0.0883 -0.6370 -0.6095
 1494SOL    HW1 4693   0.557   0.223   3.187 -0.1829 -1.9597 -0.6978
 1494SOL    HW2 4694   0.693   0.213   3.122  0.0936  0.4527 -0.5713
 1495SOL     OW 4695   0.607   2.568   0.679  0.0413 -0.1337  0.3520
 1495SOL    HW1 4696   0.600   2.631   0.607 -1.2051 -0.7722 -0.1138
 1495SOL    HW2 4697   0.518   2.533   0.689  0.5488 -1.2634  1.0974
 1496SOL     OW 4698   4.271   0.977   0.942  0.1257 -0.1158  0.2835
 1496SOL    HW1 4699   4.316   0.907   0.989  0.0509 -0.9433 -0.8180
 1496SOL    HW2 4700   4.288   1.056   0.993 -1.8489 -1.2828  2.9590
 1497SOL     OW 4701   4.262   2.339   2.655  0.2692  0.1484  0.0468
 1497SOL    HW1 4702   4.185   2.333   2.711  1.0582 -0.8013  1.0841
 1497SOL    HW2 4703   4.330   2.375   2.713  0.8616  0.0276 -0.5650
 1498SOL     OW 4704   3.707   1.869   2.355 -0.0717  0.0314 -0.3805
 1498SOL    HW1 4705   3.725   1.942   2.295  1.2028  0.0738  0.0250
 1498SOL    HW2 4706   3.628   1.896   2.403 -2.3417 -0.8352 -3.3169
 1499SOL     OW 4707   0.911   0.418   3.165  0.3072 -1.0077  0.0840
 1499SOL    HW1 4708   0.916   0.342   3.107 -1.6004 -1.7434  0.7652
 1499SOL    HW2 4709   0.834   0.400   3.220 -0.8859  1.9283 -0.4579
 1500SOL     OW 4710   3.243   4.224   2.163 -0.2735 -0.1447 -0.1463
 1500SOL    HW1 4711   3.235   4.219   2.068 -0.7216 -0.8836 -0.0828
 1500SOL    HW2 4712   3.285   4.308   2.180 -0.3049  0.0473 -0.9906
 1501SOL     OW 4713   1.009   3.078   3.313  0.2615 -0.0740 -0.0887
 1501SOL    HW1 4714   1.001   3.163   3.270  0.4146 -0.4783 -0.9324
 1501SOL    HW2 4715   1.104   3.061   3.316  0.2003 -0.5496 -0.6111
 1502SOL     OW 4716   3.188   2.291   2.958 -0.0080 -0.0009 -0.2406
 1502SOL    HW1 4717   3.140   2.362   2.917  0.8713  1.0921  0.5745
 1502SOL    HW2 4718   3.247   2.258   2.889 -0.7384 -0.2550 -0.7506
 1503SOL     OW 4719   1.233   1.415   2.518 -0.9364 -0.1532 -0.2299
 1503SOL    HW1 4720   1.162   1.385   2.460 -0.7734  0.3000 -0.6701
 1503SOL    HW2 4721   1.218   1.369   2.600 -2.1284  0.4081 -0.1054
 1504SOL     OW 4722   0.719   0.374   3.434  0.1053  0.2238 -0.4318
 1504SOL    HW1 4723   0.672   0.329   3.363  0.4823 -2.0731  0.6836
 1504SOL    HW2 4724   0.671   0.455   3.447 -2.5024 -1.2097 -0.5386
 1505SOL     OW 4725   0.892   0.536   1.300 -0.4423  0.0366  0.3014
 1505SOL    HW1 4726   0.917   0.491   1.219 -0.6720 -1.4108  1.0079
 1505SOL    HW2 4727   0.798   0.553   1.290 -0.2142  1.0695 -0.2753
 1506SOL     OW 4728   1.987   0.257   2.259 -1.0659  0.0790 -0.2583
 1506SOL    HW1 4729   1.917   0.321   2.244  0.1680  1.4657 -0.3983
 1506SOL    HW2 4730   1.974   0.192   2.191 -0.9050  1.5201 -1.7360
 1507SOL     OW 4731   2.131   4.200   0.093 -0.4695 -0.1117 -0.6012
 1507SOL    HW1 4732   2.111   4.110   0.118  0.4546  0.2268  1.6055
 1507SOL    HW2 4733   2.046   4.239   0.070 -1.2380 -0.8615  0.8595
 1508SOL     OW 4734   0.394   3.846   4.132  0.2125 -0.1184  0.0353
 1508SOL    HW1 4735   0.328   3.847   4.063 -0.3430 -0.7964  0.5520
 1508SOL    HW2 4736   0.344   3.840   4.213  0.9252 -1.3881  0.3944
 1509SOL     OW 4737   3.296   0.509   3.598  0.0462 -0.2338  0.3686
 1509SOL    HW1 4738   3.322   0.597   3.570  2.4387 -1.0983 -0.4352
 1509SOL    HW2 4739   3.220   0.488   3.544  0.1364  0.8979 -0.2343
 1510SOL     OW 4740   4.049   3.008   0.166 -0.0008 -0.7656  0.1152
 1510SOL    HW1 4741   4.126   3.038   0.118 -1.7183  1.6870 -1.3762
 1510SOL    HW2 4742   3.986   2.984   0.098 -1.5142  0.0280  1.1705
 1511SOL     OW 4743   3.366   2.172   3.461  0.0484  0.1772  0.1761
 1511SOL    HW1 4744   3.333   2.195   3.548 -1.8354  0.4864 -0.5692
 1511SOL    HW2 4745   3.390   2.080   3.468  1.8966  0.6787  1.5339
 1512SOL     OW 4746   3.702   1.997   3.326  0.0947 -0.3421  0.1202
 1512SOL    HW1 4747   3.733   2.082   3.356 -0.7846 -0.4495  1.4360
 1512SOL    HW2 4748   3.780   1.954   3.290  0.5043  1.0773 -0.7528
 1513SOL     OW 4749   3.346   1.706   2.451 -0.0860  0.2638  0.1191
 1513SOL    HW1 4750   3.278   1.704   2.519 -0.8317 -0.6214 -0.6188
 1513SOL    HW2 4751   3.419   1.751   2.492 -0.7157  0.2438  1.3281
 1514SOL     OW 4752   3.759   0.191   3.559 -0.5779 -0.0237  0.0749
 1514SOL    HW1 4753   3.770   0.219   3.650 -1.5509 -0.7352  0.4170
 1514SOL    HW2 4754   3.797   0.263   3.508  3.0801 -1.0266  1.0486
 1515SOL     OW 4755   3.048   1.814   3.400 -0.2308  0.5396  0.1386
 1515SOL    HW1 4756   3.005   1.859   3.328 -0.0912  0.2009 -0.1599
 1515SOL    HW2 4757   3.012   1.725   3.398  0.9737  0.0552 -0.5399
 1516SOL     OW 4758   3.588   1.399   3.180  0.2706  0.2245  0.3212
 1516SOL    HW1 4759   3.533   1.356   3.245 -1.7900  1.8761 -0.2547
 1516SOL    HW2 4760   3.537   1.395   3.099  0.2720  3.0978  0.0990
 1517SOL     OW 4761   4.026   2.704   0.370  0.3123  0.4826 -0.1304
 1517SOL    HW1 4762   3.947   2.709   0.316  0.3029  0.7313 -0.0947
 1517SOL    HW2 4763   4.065   2.791   0.364 -0.1895  0.8034  1.0262
 1518SOL     OW 4764   1.009   0.501   2.327  0.1152  0.3653  0.2389
 1518SOL    HW1 4765   1.095   0.489   2.368 -1.5269 -0.1691  3.8534
 1518SOL    HW2 4766   0.972   0.413   2.323 -0.9245  0.7922  0.2948
 1519SOL     OW 4767   1.918   2.477   4.218 -0.4193 -0.6769 -0.0979
 1519SOL    HW1 4768   1.907   2.562   4.261  1.0333 -0.0294 -0.9245
 1519SOL    HW2 4769   1.941   2.417   4.289 -0.0693 -0.0669  0.3138
 1520SOL     OW 4770   3.612   1.231   1.277  0.6917 -0.1444 -0.2898
 1520SOL    HW1 4771   3.673   1.278   1.220 -1.4963  1.5461 -1.3648
 1520SOL    HW2 4772   3.599   1.147   1.234  0.7457  0.2597 -1.1118
 1521SOL     OW 4773   1.709   1.085   3.302 -0.3889  0.0850 -0.1784
 1521SOL    HW1 4774   1.789   1.085   3.355  0.1711 -1.2164 -0.9780
 1521SOL    HW2 4775   1.652   1.149   3.345  1.3435  1.5947 -0.0193
 1522SOL     OW 4776   2.655   0.263   1.778  0.5176 -0.2333  0.3203
 1522SOL    HW1 4777   2.724   0.198   1.765 -0.4289 -1.0189 -1.0373
 1522SOL    HW2 4778   2.610   0.267   1.694 -1.3907 -0.0751  1.2985
 1523SOL     OW 4779   2.542   0.344   3.010  0.7451  0.1937  0.2881
 1523SOL    HW1 4780   2.556   0.422   2.957 -1.4324  0.6724  0.3457
 1523SOL    HW2 4781   2.536   0.272   2.947 -0.4852  0.5666 -0.0379
 1524SOL     OW 4782   1.754   0.710   1.308 -0.6664 -0.8142  0.3667
 1524SOL    HW1 4783   1.841   0.751   1.305 -1.2212  0.3650 -2.5991
 1524SOL    HW2 4784   1.763   0.631   1.255 -1.7650  0.2337 -1.4630
 1525SOL     OW 4785   3.602   3.045   0.038 -0.0076 -0.4995  0.2994
 1525SOL    HW1 4786   3.589   3.080  -0.050 -0.2611 -0.4546  0.3550
 1525SOL    HW2 4787   3.688   3.079   0.064  0.3409 -1.0014 -0.1585
 1526SOL     OW 4788   4.288   0.071   3.495 -0.3206  0.0747 -0.6201
 1526SOL    HW1 4789   4.208   0.054   3.545 -0.0247  0.1896 -0.1094
 1526SOL    HW2 4790   4.278   0.161   3.464  0.4293  0.7354  0.9809
 1527SOL     OW 4791   3.074   2.433   2.541 -0.1144 -0.1881 -0.5694
 1527SOL    HW1 4792   3.021   2.381   2.602  0.2335 -0.4495 -0.4901
 1527SOL    HW2 4793   3.155   2.449   2.589 -0.4001  0.8299 -0.4065
 1528SOL     OW 4794   3.639   2.978   0.774 -0.0262  0.0418 -0.1695
 1528SOL    HW1 4795   3.713   3.039   0.772 -0.1391  0.1795 -0.1457
 1528SOL    HW2 4796   3.583   3.009   0.845  0.5691 -0.8637  0.7231
 1529SOL     OW 4797   3.003   1.523   3.681  0.6672  0.1516  0.3086
 1529SOL    HW1 4798   2.938   1.539   3.612  0.4630 -0.1826  0.4237
 1529SOL    HW2 4799   3.032   1.433   3.666  1.9673  0.6690 -0.4676
 1530SOL     OW 4800   1.699   1.338   2.304  0.0440  0.0310 -0.1412
 1530SOL    HW1 4801   1.729   1.422   2.339  0.2894 -0.3509  0.5764
 1530SOL    HW2 4802   1.609   1.329   2.335 -0.2214  0.3406 -0.7951
 1531SOL     OW 4803   2.059   3.927   2.250  0.1603  0.2147  0.6790
 1531SOL    HW1 4804   2.034   3.962   2.335 -0.5764  0.8836  0.1992
 1531SOL    HW2 4805   2.072   4.003   2.195  1.5976 -0.1769  0.4275
 1532SOL     OW 4806   2.992   3.200   1.569  0.1091  0.4158  0.0989
 1532SOL    HW1 4807   2.981   3.231   1.479  1.3278  1.1517  0.1813
 1532SOL    HW2 4808   2.943   3.118   1.572  2.8855 -1.5671 -2.3457
 1533SOL     OW 4809   2.171   1.837   3.805 -0.1753 -0.5956  0.4749
 1533SOL    HW1 4810   2.220   1.792   3.874 -0.4273 -0.0221  1.0493
 1533SOL    HW2 4811   2.185   1.930   3.824  0.3533 -0.4308 -0.6890
 1534SOL     OW 4812   2.676   2.904   1.005 -0.2742 -0.7941  0.0108
 1534SOL    HW1 4813   2.732   2.969   1.047 -0.4287 -1.2060  0.8742
 1534SOL    HW2 4814   2.738   2.845   0.961 -0.1804  0.9227 -2.3601
 1535SOL     OW 4815   2.129   3.720   2.760  0.2582 -0.2057  0.3842
 1535SOL    HW1 4816   2.095   3.740   2.847  1.5304  0.2922  0.7971
 1535SOL    HW2 4817   2.219   3.754   2.761  0.6492 -1.1289 -0.7721
 1536SOL     OW 4818   2.926   0.637   1.304 -0.2340 -0.0144 -0.3522
 1536SOL    HW1 4819   2.943   0.672   1.392  1.0302 -0.0294 -0.5800
 1536SOL    HW2 4820   3.011   0.636   1.261 -0.5617 -1.5160 -1.0404
 1537SOL     OW 4821   3.022   0.555   2.515  0.2186  0.0872  0.9084
 1537SOL    HW1 4822   3.069   0.628   2.557  0.2938 -0.2020  1.3352
 1537SOL    HW2 4823   3.009   0.584   2.425 -1.1960  1.3273  1.4674
 1538SOL     OW 4824   2.481   1.269   1.280  0.1828  0.3606 -0.4837
 1538SOL    HW1 4825   2.510   1.341   1.224  0.9958  0.8671  0.5600
 1538SOL    HW2 4826   2.545   1.266   1.351 -0.3419 -0.8202 -0.0358
 1539SOL     OW 4827   4.152   0.070   1.037 -0.5304 -0.1072  0.0812
 1539SOL    HW1 4828   4.109   0.141   1.086 -0.1608  0.7329 -0.7968
 1539SOL    HW2 4829   4.242   0.069   1.069 -0.3052  0.4004 -0.5212
 1540SOL     OW 4830   1.328   1.857   3.851  0.4166 -0.1281  0.0920
 1540SOL    HW1 4831   1.367   1.877   3.936  0.7841  0.1966 -0.1489
 1540SOL    HW2 4832   1.240   1.827   3.871  1.4679 -3.0105  0.8398
 1541SOL     OW 4833   2.403   0.442   2.437 -0.0318  0.1150  0.7931
 1541SOL    HW1 4834   2.321   0.458   2.390  0.2906  1.7199  0.7356
 1541SOL    HW2 4835   2.468   0.433   2.367  0.6898  3.8143  0.8056
 1542SOL     OW 4836   3.453   0.742   2.925  0.2209 -0.1908 -0.3529
 1542SOL    HW1 4837   3.543   0.774   2.922  0.0387  0.3017 -2.6120
 1542SOL    HW2 4838   3.461   0.650   2.950  1.3776 -0.1643 -0.5832
 1543SOL     OW 4839   0.676   1.650   3.903 -0.2930  0.1336 -0.1853
 1543SOL    HW1 4840   0.702   1.641   3.811  0.8205  0.2006  0.1179
 1543SOL    HW2 4841   0.700   1.740   3.926  0.2808 -0.1740  0.4347
 1544SOL     OW 4842   4.054   2.024   1.509  0.4506 -0.7302  0.6237
 1544SOL    HW1 4843   4.038   2.018   1.415  0.0293 -1.0992  0.7140
 1544SOL    HW2 4844   4.115   1.952   1.527 -0.3688 -1.3911  0.8167
 1545SOL     OW 4845   0.102   2.757   3.175  0.4766 -0.1530 -0.0762
 1545SOL    HW1 4846   0.063   2.681   3.218 -0.5026 -1.3190 -2.7650
 1545SOL    HW2 4847   0.028   2.814   3.154  0.5077 -0.8320 -2.3301
 1546SOL     OW 4848   3.801   2.234   3.047 -0.0354  0.0795 -0.3736
 1546SOL    HW1 4849   3.894   2.244   3.065 -0.1024 -1.1497  0.7505
 1546SOL    HW2 4850   3.790   2.142   3.024 -0.7908  0.4865 -1.7772
 1547SOL     OW 4851   1.280   2.388   1.902  0.0096 -0.0400 -0.0360
 1547SOL    HW1 4852   1.276   2.397   1.997 -1.1915  0.5106 -0.1214
 1547SOL    HW2 4853   1.362   2.431   1.877  0.5074 -0.4895  0.7657
 1548SOL     OW 4854   0.356   0.701   3.098 -0.1519 -0.3247  0.5200
 1548SOL    HW1 4855   0.276   0.688   3.048  0.2834 -0.0001 -0.2864
 1548SOL    HW2 4856   0.413   0.752   3.040  0.4750 -0.1714  1.2432
 1549SOL     OW 4857   2.253   0.962   3.401  0.2355 -0.4529 -0.3700
 1549SOL    HW1 4858   2.193   0.917   3.460  1.2065  0.8992  1.7861
 1549SOL    HW2 4859   2.214   1.048   3.388  0.8657 -0.1469 -0.2907
 1550SOL     OW 4860   3.673   0.280   0.071 -0.2288  1.1370  0.1296
 1550SOL    HW1 4861   3.688   0.324  -0.012 -1.1838  1.1728 -0.0394
 1550SOL    HW2 4862   3.739   0.317   0.130 -1.2141  3.1125  0.0969
 1551SOL     OW 4863   0.746   1.362   3.144  0.2268 -0.2108 -0.1917
 1551SOL    HW1 4864   0.688   1.429   3.181 -0.0715 -0.9557  0.7271
 1551SOL    HW2 4865   0.825   1.367   3.197 -0.0761 -1.0603  0.3646
 1552SOL     OW 4866   0.812   0.924   2.350 -0.1104  0.4195 -0.5731
 1552SOL    HW1 4867   0.732   0.880   2.320 -0.4894 -0.8709  2.0327
 1552SOL    HW2 4868   0.883   0.872   2.312 -0.4775  0.9199 -2.0139
 1553SOL     OW 4869   0.233   0.501   3.893 -0.1767 -0.1181 -0.2760
 1553SOL    HW1 4870   0.225   0.505   3.988 -2.7812  0.6728 -0.4636
 1553SOL    HW2 4871   0.307   0.559   3.872  0.9703 -0.9485  1.2602
 1554SOL     OW 4872   4.209   0.096   0.196 -0.6984  0.2038  0.1493
 1554SOL    HW1 4873   4.292   0.142   0.207 -1.1689  0.8330  1.2579
 1554SOL    HW2 4874   4.156   0.154   0.141 -1.1038  0.7787  1.1140
 1555SOL     OW 4875   1.666   0.638   1.807 -0.2253  0.3271 -0.4275
 1555SOL    HW1 4876   1.624   0.588   1.737  0.5463 -2.4472  0.9225
 1555SOL    HW2 4877   1.593   0.678   1.854 -1.1395 -1.2833 -0.3729
 1556SOL     OW 4878   1.108   4.139   3.671  0.0307  0.5409 -0.3512
 1556SOL    HW1 4879   1.131   4.184   3.589  1.9654 -0.7186 -0.5655
 1556SOL    HW2 4880   1.119   4.046   3.651 -4.4773 -0.2890 -0.1180
 1557SOL     OW 4881   0.153   4.051   0.087 -0.0355  0.0740  0.1720
 1557SOL    HW1 4882   0.161   4.117   0.156  1.0468  0.8039 -0.6087
 1557SOL    HW2 4883   0.192   3.972   0.125 -2.5523 -0.5958  1.6089
 1558SOL     OW 4884   0.852   0.386   2.721  0.5596 -0.5222  0.2329
 1558SOL    HW1 4885   0.917   0.353   2.783  0.6582 -1.3262 -0.2701
 1558SOL    HW2 4886   0.838   0.312   2.661  0.3257  0.1697 -0.5751
 1559SOL     OW 4887   3.971   1.895   2.753  0.2107 -0.3518  0.0546
 1559SOL    HW1 4888   3.917   1.832   2.706  0.3167 -0.0707 -0.4582
 1559SOL    HW2 4889   4.019   1.843   2.817 -0.8228 -0.5736  0.6703
 1560SOL     OW 4890   1.499   1.721   3.138 -0.0614  0.2843  0.1047
 1560SOL    HW1 4891   1.474   1.720   3.230 -1.9940  1.0594 -0.3610
 1560SOL    HW2 4892   1.547   1.640   3.125 -0.4161 -0.1910  1.6255
 1561SOL     OW 4893   1.212   0.771   3.057 -0.0342 -0.1604 -0.1072
 1561SOL    HW1 4894   1.199   0.808   2.969  0.6088  1.2148  0.3538
 1561SOL    HW2 4895   1.291   0.814   3.090  0.4944 -1.6591  0.6429
 1562SOL     OW 4896   0.491   0.606   2.122 -0.2778  0.0408  0.3895
 1562SOL    HW1 4897   0.475   0.620   2.029 -0.4018 -0.5868  0.3156
 1562SOL    HW2 4898   0.404   0.596   2.161 -0.3118  1.7501  0.8183
 1563SOL     OW 4899   2.917   2.465   1.341  0.1351  0.2762  0.0636
 1563SOL    HW1 4900   2.957   2.454   1.427 -1.6573 -0.8185  0.8205
 1563SOL    HW2 4901   2.842   2.522   1.357  0.0220  0.3922 -0.8474
 1564SOL     OW 4902   2.970   0.734   0.029 -0.4597 -0.0749 -0.6010
 1564SOL    HW1 4903   2.921   0.683  -0.036  0.5968 -2.3951  0.2948
 1564SOL    HW2 4904   2.906   0.795   0.065 -0.9993  1.5668 -3.9764
 1565SOL     OW 4905   1.237   2.070   4.234 -0.3130  0.1322  0.3546
 1565SOL    HW1 4906   1.142   2.058   4.227 -0.1011 -1.1842 -0.5509
 1565SOL    HW2 4907   1.258   2.041   4.323 -0.8612  1.2957  0.8853
 1566SOL     OW 4908   0.508   0.523   3.245  0.3608  0.0345 -0.2024
 1566SOL    HW1 4909   0.580   0.518   3.182  1.9953  0.0683  1.5631
 1566SOL    HW2 4910   0.444   0.580   3.203  1.4837  0.2510 -1.7318
 1567SOL     OW 4911   1.114   0.821   0.281  0.2882  0.0924 -0.0416
 1567SOL    HW1 4912   1.025   0.854   0.293 -0.3468 -1.2001 -0.9448
 1567SOL    HW2 4913   1.147   0.809   0.370 -1.0791 -0.9917  0.3561
 1568SOL     OW 4914   0.297   3.590   2.102  0.6128  0.6829 -0.0376
 1568SOL    HW1 4915   0.371   3.600   2.042  0.7318 -2.2145 -0.5220
 1568SOL    HW2 4916   0.336   3.595   2.189  1.0343  1.2564 -0.2521
 1569SOL     OW 4917   1.414   4.238   4.199  0.4104 -0.0301 -0.1711
 1569SOL    HW1 4918   1.462   4.227   4.281 -0.1057  0.6269  0.2279
 1569SOL    HW2 4919   1.343   4.174   4.205  2.6907 -3.0252 -1.9612
 1570SOL     OW 4920   2.276   1.073   1.063 -0.0227  1.0534  0.0332
 1570SOL    HW1 4921   2.242   1.067   0.974  1.2206  0.2201 -0.4110
 1570SOL    HW2 4922   2.204   1.042   1.118 -0.5640  0.9185 -0.7378
 1571SOL     OW 4923   0.154   1.840   0.466 -0.2159  0.2052 -0.3869
 1571SOL    HW1 4924   0.181   1.929   0.487 -3.4083  1.0578  0.6625
 1571SOL    HW2 4925   0.198   1.786   0.532 -0.8458  1.4819  1.1647
 1572SOL     OW 4926   3.097   1.410   2.586  0.1969  0.1758 -0.1727
 1572SOL    HW1 4927   3.097   1.366   2.501 -2.0975 -1.7787  0.7437
 1572SOL    HW2 4928   3.054   1.494   2.569 -1.5220 -0.7746 -0.7347
 1573SOL     OW 4929   1.957   0.474   4.159 -0.0432 -0.4964  0.2236
 1573SOL    HW1 4930   1.979   0.522   4.079 -0.5775 -0.5680  0.0333
 1573SOL    HW2 4931   2.041   0.442   4.191  0.4013  1.0029  0.6370
 1574SOL     OW 4932   3.156   0.306   3.785 -0.3688 -0.0312  0.1240
 1574SOL    HW1 4933   3.186   0.365   3.716  0.0806  1.3230  1.4196
 1574SOL    HW2 4934   3.233   0.291   3.839 -0.5999 -1.4532  0.1008
 1575SOL     OW 4935   4.108   0.131   2.661  0.0516 -0.1732  0.0087
 1575SOL    HW1 4936   4.049   0.205   2.646  1.4728  0.9619 -0.1014
 1575SOL    HW2 4937   4.052   0.054   2.650 -1.0631  0.8114 -1.6771
 1576SOL     OW 4938   0.210   0.206   4.223  0.2138 -0.3729  0.1608
 1576SOL    HW1 4939   0.261   0.161   4.291  1.4540 -0.3416 -0.7276
 1576SOL    HW2 4940   0.183   0.136   4.164  0.5132 -0.1966 -0.1844
 1577SOL     OW 4941   1.170   3.070   0.251 -0.1631  0.1446  0.2827
 1577SOL    HW1 4942   1.227   3.024   0.188 -0.2169  0.8183 -0.2780
 1577SOL    HW2 4943   1.167   3.013   0.327  0.8734 -0.1437  0.1306
 1578SOL     OW 4944   3.169   0.181   4.210 -0.0995 -0.6512 -0.3041
 1578SOL    HW1 4945   3.226   0.221   4.275  0.2283 -0.5631 -0.6362
 1578SOL    HW2 4946   3.215   0.101   4.183  0.2677 -0.1711 -1.1561
 1579SOL     OW 4947   0.238   4.073   2.173 -0.8897  0.1368  0.4533
 1579SOL    HW1 4948   0.299   4.146   2.173 -1.4968  0.6628  0.0875
 1579SOL    HW2 4949   0.284   4.002   2.218  0.1248  0.3906 -0.1502
 1580SOL     OW 4950   3.123   0.149   1.560  0.2245 -0.1701  0.2516
 1580SOL    HW1 4951   3.109   0.218   1.495  0.5005 -0.9746 -0.7001
 1580SOL    HW2 4952   3.037   0.109   1.572  0.2911 -0.4439 -0.1370
 1581SOL     OW 4953   3.014   2.562   2.287 -0.6717  0.0476  0.0623
 1581SOL    HW1 4954   3.003   2.488   2.228 -0.3119  0.3890 -0.4366
 1581SOL    HW2 4955   3.023   2.522   2.374  0.2273 -0.5429 -0.2827
 1582SOL     OW 4956   1.608   2.861   3.848  0.1405 -0.0076  0.7004
 1582SOL    HW1 4957   1.579   2.952   3.842 -0.6534 -0.0872  2.4391
 1582SOL    HW2 4958   1.586   2.835   3.938  0.4669 -1.8748  0.2915
 1583SOL     OW 4959   2.705   1.171   3.458  0.2640 -0.0424  0.1884
 1583SOL    HW1 4960   2.645   1.116   3.407  0.7471 -0.9381  0.5446
 1583SOL    HW2 4961   2.792   1.149   3.424  0.3526  2.5407 -1.5562
 1584SOL     OW 4962   3.201   2.651   0.844 -0.1115  0.2140 -0.4323
 1584SOL    HW1 4963   3.243   2.645   0.758  0.6520 -0.0753 -0.0501
 1584SOL    HW2 4964   3.167   2.741   0.847  1.5177  0.8673 -0.2982
 1585SOL     OW 4965   3.639   0.614   3.249 -0.2791 -0.4611  0.1464
 1585SOL    HW1 4966   3.662   0.653   3.164 -0.5994 -0.4457  0.0684
 1585SOL    HW2 4967   3.675   0.675   3.313 -2.3193  0.9317  0.0546
 1586SOL     OW 4968   0.258   0.562   2.602 -0.1252 -0.3926 -0.8410
 1586SOL    HW1 4969   0.334   0.507   2.624  0.2098 -0.4395 -2.0612
 1586SOL    HW2 4970   0.261   0.633   2.666  1.5345  0.1476 -1.4580
 1587SOL     OW 4971   3.716   1.311   4.279 -0.3498  0.0545  0.1935
 1587SOL    HW1 4972   3.659   1.385   4.301  0.4845  1.5897 -2.4298
 1587SOL    HW2 4973   3.804   1.347   4.279  0.0523 -0.8186 -1.3826
 1588SOL     OW 4974   1.778   3.447   1.650 -0.2426 -0.1532 -0.2218
 1588SOL    HW1 4975   1.848   3.420   1.591 -0.9886  0.2112 -1.2889
 1588SOL    HW2 4976   1.742   3.365   1.684  1.2009 -0.3334  0.9636
 1589SOL     OW 4977   3.425   2.426   1.537  0.2356  0.2309  0.3915
 1589SOL    HW1 4978   3.421   2.356   1.602  0.1362 -0.4848 -0.3724
 1589SOL    HW2 4979   3.502   2.407   1.484 -0.4465  0.0133 -0.5639
 1590SOL     OW 4980   4.012   3.874   0.260  0.4590  0.5164  0.0004
 1590SOL    HW1 4981   4.046   3.802   0.313  0.6550  0.8769  0.3743
 1590SOL    HW2 4982   3.926   3.894   0.299  0.4991  0.6247  0.0342
 1591SOL     OW 4983   3.049   2.080   0.428  0.0323 -0.3824 -0.1968
 1591SOL    HW1 4984   3.068   2.167   0.465 -1.3055  0.1447 -0.6978
 1591SOL    HW2 4985   3.069   2.019   0.499 -1.2472  0.5181  0.9900
 1592SOL     OW 4986   1.164   0.780   0.562 -0.3942 -0.0630  0.4760
 1592SOL    HW1 4987   1.179   0.685   0.554 -2.3394 -0.4206  0.4723
 1592SOL    HW2 4988   1.100   0.787   0.633 -0.0528  1.2861  0.6638
 1593SOL     OW 4989   0.699   0.774   3.348  0.0257  0.2679 -0.5758
 1593SOL    HW1 4990   0.767   0.817   3.295 -0.5541 -1.3379 -2.7451
 1593SOL    HW2 4991   0.619   0.823   3.328  0.0117  0.3824 -0.2472
 1594SOL     OW 4992   3.018   3.931   2.793  0.0598 -0.3264  0.1745
 1594SOL    HW1 4993   2.958   3.946   2.866 -3.0337 -2.2214 -1.7971
 1594SOL    HW2 4994   3.050   4.018   2.770 -2.2897  0.8466  1.0632
 1595SOL     OW 4995   2.718   4.136   1.752 -0.0555  0.1257 -0.5299
 1595SOL    HW1 4996   2.799   4.106   1.794  0.3689  0.3993 -1.1477
 1595SOL    HW2 4997   2.648   4.104   1.810  0.3613 -2.0179 -1.0983
 1596SOL     OW 4998   2.305   2.300   0.188  0.4001 -0.7753 -0.5269
 1596SOL    HW1 4999   2.364   2.375   0.194 -1.1209  0.5086 -0.9711
 1596SOL    HW2 5000   2.235   2.320   0.250  0.0753 -1.9515 -0.4876
 1597SOL     OW 5001   2.385   3.929   1.625  0.2362  0.6558  0.1484
 1597SOL    HW1 5002   2.442   3.859   1.656  0.1713  0.6620  0.2851
 1597SOL    HW2 5003   2.438   3.977   1.561 -0.1567 -0.2831 -0.9065
 1598SOL     OW 5004   2.851   0.087   3.515 -0.2533 -0.5576 -0.6458
 1598SOL    HW1 5005   2.901   0.077   3.596  0.0090 -1.2688 -0.8825
 1598SOL    HW2 5006   2.916   0.112   3.450 -0.2394 -1.2488 -0.9035
 1599SOL     OW 5007   3.681   3.976   2.712 -0.3056 -0.7466  0.1519
 1599SOL    HW1 5008   3.694   4.024   2.794  0.0482  0.5375 -0.6266
 1599SOL    HW2 5009   3.588   3.989   2.691  0.3295  2.0436 -1.4585
 1600SOL     OW 5010   1.109   0.303   0.040  0.6471 -1.0752 -0.0569
 1600SOL    HW1 5011   1.092   0.396   0.030  0.5316 -0.8821  1.6315
 1600SOL    HW2 5012   1.203   0.294   0.025  0.8006 -0.5557  0.5969
 1601SOL     OW 5013   1.747   0.806   0.401  0.4687 -0.3562  0.6235
 1601SOL    HW1 5014   1.781   0.785   0.315 -0.4734  2.5270 -0.5755
 1601SOL    HW2 5015   1.668   0.753   0.410  0.4589 -0.5122 -0.3781
 1602SOL     OW 5016   1.126   2.038   1.714  0.6760  0.7107  0.0053
 1602SOL    HW1 5017   1.052   2.085   1.753  0.8529  0.3360  0.8014
 1602SOL    HW2 5018   1.091   1.951   1.693  0.8715  0.5471  0.3439
 1603SOL     OW 5019   2.558   2.595   3.078  0.9646  0.2786  0.7121
 1603SOL    HW1 5020   2.478   2.545   3.095  0.7225 -0.5634 -2.2220
 1603SOL    HW2 5021   2.526   2.683   3.054  0.7780 -0.2457 -1.1337
 1604SOL     OW 5022   2.598   2.808   0.397 -0.2621 -0.0498  0.0123
 1604SOL    HW1 5023   2.646   2.809   0.315 -1.2197 -0.4498 -0.5782
 1604SOL    HW2 5024   2.637   2.878   0.449 -0.2258  0.8258 -1.1400
 1605SOL     OW 5025   3.526   3.999   1.272 -0.8270 -0.0473 -0.2492
 1605SOL    HW1 5026   3.592   4.024   1.208 -0.1512 -1.8062 -0.3017
 1605SOL    HW2 5027   3.502   3.909   1.248 -0.9083 -0.5925  1.6434
 1606SOL     OW 5028   2.154   1.360   0.097  0.4099 -0.2227 -0.3601
 1606SOL    HW1 5029   2.212   1.400   0.032 -0.4506 -0.4619 -1.3018
 1606SOL    HW2 5030   2.172   1.408   0.178  4.4451 -2.5173  0.3782
 1607SOL     OW 5031   0.965   0.321   1.978  0.0133  0.1371  0.2626
 1607SOL    HW1 5032   0.933   0.275   1.901  0.2596 -0.8330  0.7283
 1607SOL    HW2 5033   0.898   0.308   2.045 -0.0642  0.7259  0.3069
 1608SOL     OW 5034   1.772   1.790   0.879 -0.3118  0.1880 -0.0235
 1608SOL    HW1 5035   1.844   1.728   0.866  2.5223  3.5377 -1.9875
 1608SOL    HW2 5036   1.743   1.812   0.791 -0.1567  2.7364  0.4994
 1609SOL     OW 5037   3.870   3.695   4.224 -0.2312  0.3062 -0.3863
 1609SOL    HW1 5038   3.838   3.681   4.135 -0.7131  3.6972 -0.9100
 1609SOL    HW2 5039   3.949   3.749   4.213  0.3369 -0.1415  1.2206
 1610SOL     OW 5040   2.986   2.988   3.924  0.2356  0.0462 -0.3085
 1610SOL    HW1 5041   2.901   3.002   3.967  1.0461  0.2788  1.2955
 1610SOL    HW2 5042   3.049   2.990   3.996  1.6136 -0.0608 -1.4858
 1611SOL     OW 5043   0.469   2.817   4.242 -0.1341 -0.7185  1.3695
 1611SOL    HW1 5044   0.514   2.891   4.201  0.0852 -0.3848  2.1896
 1611SOL    HW2 5045   0.536   2.750   4.252 -0.9440 -2.2768 -2.1340
 1612SOL     OW 5046   1.655   2.000   2.570  0.3696 -0.4645  0.0428
 1612SOL    HW1 5047   1.589   1.953   2.520 -1.2480  0.4170  1.2487
 1612SOL    HW2 5048   1.654   1.958   2.656  0.2003  0.5861  0.5705
 1613SOL     OW 5049   1.718   3.308   3.352  0.0306  0.1441 -0.5021
 1613SOL    HW1 5050   1.749   3.355   3.429  0.2871  1.2809 -1.2727
 1613SOL    HW2 5051   1.671   3.374   3.301 -1.4352 -0.9451 -0.6151
 1614SOL     OW 5052   3.532   3.497   1.394 -0.4696  0.3904 -0.0338
 1614SOL    HW1 5053   3.570   3.490   1.482  1.4035 -0.2882 -0.8547
 1614SOL    HW2 5054   3.561   3.582   1.362  0.1262  0.0004 -0.5505
 1615SOL     OW 5055   1.050   3.632   2.497  0.3873  0.0757  0.3809
 1615SOL    HW1 5056   1.048   3.687   2.576  3.4223 -0.4494  0.9525
 1615SOL    HW2 5057   1.138   3.647   2.461 -0.7352 -0.1077 -2.6549
 1616SOL     OW 5058   4.164   3.408   2.509  0.0510  0.2433  0.1870
 1616SOL    HW1 5059   4.160   3.367   2.595  0.4292  0.4135  0.2870
 1616SOL    HW2 5060   4.251   3.388   2.476  0.0828  0.5895  0.0497
 1617SOL     OW 5061   3.187   2.011   0.179  0.4869  0.3557 -0.2582
 1617SOL    HW1 5062   3.167   2.027   0.271  1.3232 -0.0488  0.0056
 1617SOL    HW2 5063   3.146   1.926   0.160  2.9375 -1.1403  0.6580
 1618SOL     OW 5064   1.918   2.874   1.344 -0.8836  0.1469 -0.1158
 1618SOL    HW1 5065   1.964   2.899   1.424  1.7277  0.2593 -1.5624
 1618SOL    HW2 5066   1.925   2.779   1.341  0.1793  0.2355 -0.8317
 1619SOL     OW 5067   2.976   3.661   1.830 -0.3964 -0.5504  0.3848
 1619SOL    HW1 5068   3.023   3.582   1.800 -0.5955 -0.6712  0.3896
 1619SOL    HW2 5069   3.039   3.732   1.818 -0.3141 -0.6671  0.1047
 1620SOL     OW 5070   1.910   2.421   1.222 -0.1914  0.5057  0.1409
 1620SOL    HW1 5071   1.990   2.373   1.244 -0.3368  1.1985  2.5117
 1620SOL    HW2 5072   1.942   2.503   1.183  0.2761  0.6648  0.8240
 1621SOL     OW 5073   0.170   3.549   4.000 -0.5339 -0.4905 -0.6147
 1621SOL    HW1 5074   0.160   3.460   3.964 -2.2987 -0.3465 -0.5758
 1621SOL    HW2 5075   0.110   3.602   3.949 -0.2311  0.4942  0.0336
 1622SOL     OW 5076   0.810   1.812   0.055  0.1201  0.1115 -0.6079
 1622SOL    HW1 5077   0.894   1.793   0.096 -0.4470  0.4809  0.7661
 1622SOL    HW2 5078   0.774   1.726   0.033  1.9532 -0.0321 -3.6409
 1623SOL     OW 5079   4.025   0.027   3.942  0.3407  0.0786  0.6453
 1623SOL    HW1 5080   4.114   0.060   3.950 -0.1003  1.4499  0.1439
 1623SOL    HW2 5081   4.018  -0.039   4.011  1.2369  1.0778  1.7428
 1624SOL     OW 5082   0.577   3.741   2.856  0.3809  0.4214  0.2867
 1624SOL    HW1 5083   0.486   3.751   2.883  0.8865  3.0236  1.3019
 1624SOL    HW2 5084   0.572   3.692   2.774 -1.9075  0.4429  0.3394
 1625SOL     OW 5085   0.598   2.418   1.874 -0.2567 -0.6759  0.0653
 1625SOL    HW1 5086   0.601   2.327   1.903 -0.6527 -0.2078  1.6631
 1625SOL    HW2 5087   0.663   2.463   1.928 -0.3841  0.0780 -0.3934
 1626SOL     OW 5088   1.451   1.276   0.859  0.7213 -0.5189  0.3770
 1626SOL    HW1 5089   1.445   1.230   0.775  0.7435 -1.6316  0.9534
 1626SOL    HW2 5090   1.439   1.368   0.838  0.9066 -0.7659 -0.8657
 1627SOL     OW 5091   3.368   3.178   3.840  0.1219  0.6740  0.0373
 1627SOL    HW1 5092   3.301   3.164   3.907  0.3512  1.7844  0.5215
 1627SOL    HW2 5093   3.374   3.093   3.795 -1.3406  0.4388  0.2105
 1628SOL     OW 5094   1.410   3.396   0.893 -0.1772  0.0029 -0.5796
 1628SOL    HW1 5095   1.369   3.386   0.807 -0.9568  1.0406 -0.3447
 1628SOL    HW2 5096   1.490   3.345   0.887 -0.1984  0.0909 -1.9418
 1629SOL     OW 5097   3.588   3.128   1.761  0.2443 -0.1951  0.3421
 1629SOL    HW1 5098   3.665   3.100   1.711 -0.2579 -1.8750  0.4385
 1629SOL    HW2 5099   3.523   3.148   1.694  0.3064 -0.1834  0.2844
 1630SOL     OW 5100   3.537   2.794   4.252  0.4805  0.4238 -0.3370
 1630SOL    HW1 5101   3.617   2.742   4.259  0.7616  0.7134 -1.2726
 1630SOL    HW2 5102   3.537   2.849   4.331  0.5994 -0.3861  0.2484
 1631SOL     OW 5103   4.228   0.792   0.377 -0.4759  0.3175 -0.2495
 1631SOL    HW1 5104   4.299   0.728   0.384  0.9565  1.3455 -3.2707
 1631SOL    HW2 5105   4.271   0.876   0.395 -1.8644  0.6859  1.6240
 1632SOL     OW 5106   1.141   0.165   3.711 -0.8679  0.3636  0.2630
 1632SOL    HW1 5107   1.067   0.181   3.652 -1.1671 -0.0075  0.5374
 1632SOL    HW2 5108   1.113   0.093   3.767 -1.1158  1.5998  1.7805
 1633SOL     OW 5109   4.046   2.450   1.994  0.2773 -0.1925  0.3176
 1633SOL    HW1 5110   4.016   2.535   2.025 -0.7156 -0.9876  1.6119
 1633SOL    HW2 5111   3.985   2.427   1.923 -1.2988 -1.0665  1.8638
 1634SOL     OW 5112   4.195   2.220   1.669  0.7362  0.1659  0.2928
 1634SOL    HW1 5113   4.124   2.186   1.616  1.6512 -0.6609 -0.4443
 1634SOL    HW2 5114   4.261   2.249   1.606  1.7352 -0.6047  0.9472
 1635SOL     OW 5115   0.693   0.545   2.998  0.2495  0.4901 -0.5967
 1635SOL    HW1 5116   0.642   0.584   2.927 -0.9534 -0.2683 -0.1689
 1635SOL    HW2 5117   0.784   0.566   2.976 -0.2954  3.2522 -0.5549
 1636SOL     OW 5118   2.742   1.086   4.285 -0.5051  0.2114 -0.2345
 1636SOL    HW1 5119   2.674   1.058   4.347  1.3746 -2.4380  0.7769
 1636SOL    HW2 5120   2.746   1.016   4.220 -1.1972  2.1026 -2.4410
 1637SOL     OW 5121   1.000   1.256   1.176 -0.4716 -0.3693  0.3948
 1637SOL    HW1 5122   1.001   1.333   1.234  1.1302 -1.4379  1.8876
 1637SOL    HW2 5123   1.061   1.279   1.106 -0.9358  0.1845  0.1616
 1638SOL     OW 5124   4.016   2.701   2.538  0.3013 -0.0205  0.4141
 1638SOL    HW1 5125   3.975   2.784   2.515 -0.4686 -0.2522  0.9052
 1638SOL    HW2 5126   4.028   2.656   2.455 -2.4275 -0.8538  0.3938
 1639SOL     OW 5127   2.334   1.013   0.361  0.1150 -0.0608  0.3263
 1639SOL    HW1 5128   2.268   1.080   0.345 -1.1782 -1.4366 -0.4501
 1639SOL    HW2 5129   2.316   0.981   0.449  0.0901 -0.0610  0.3212
 1640SOL     OW 5130   1.514   4.255   0.282 -0.5327 -0.4394 -0.3069
 1640SOL    HW1 5131   1.480   4.194   0.347 -0.5474  0.4074  0.4892
 1640SOL    HW2 5132   1.604   4.226   0.266 -0.9775 -1.5242 -1.0033
 1641SOL     OW 5133   1.612   1.496   0.391  0.0453  0.1669  0.3503
 1641SOL    HW1 5134   1.574   1.535   0.312 -1.1270 -0.8709  0.3728
 1641SOL    HW2 5135   1.655   1.570   0.435  0.3841  0.8342 -1.0435
 1642SOL     OW 5136   1.852   2.121   4.020  0.5447 -0.0883 -0.4869
 1642SOL    HW1 5137   1.894   2.206   4.030 -0.7742  0.9270 -2.7573
 1642SOL    HW2 5138   1.821   2.120   3.929 -0.1423 -2.7066 -0.3132
 1643SOL     OW 5139   1.246   3.229   3.803  0.0643 -0.4400  0.3709
 1643SOL    HW1 5140   1.280   3.318   3.808  0.2617 -0.5349  0.8061
 1643SOL    HW2 5141   1.217   3.219   3.713  2.1370 -0.6923 -0.3234
 1644SOL     OW 5142   1.392   0.116   3.604  0.1311 -0.4265 -0.2096
 1644SOL    HW1 5143   1.401   0.194   3.549  0.6256 -0.5405 -0.3023
 1644SOL    HW2 5144   1.320   0.136   3.664  0.1592  0.0456 -0.3299
 1645SOL     OW 5145   1.987   2.297   0.105  0.1535  0.1421  0.3059
 1645SOL    HW1 5146   2.018   2.206   0.104 -0.4597 -0.0661  0.1875
 1645SOL    HW2 5147   2.037   2.338   0.176  0.0848 -0.4061  0.6743
 1646SOL     OW 5148   0.915   1.368   3.347  0.2103 -0.1985 -0.0210
 1646SOL    HW1 5149   1.010   1.361   3.340  0.2200  0.7730 -1.1263
 1646SOL    HW2 5150   0.890   1.300   3.410  1.8918  1.2271  2.3539
 1647SOL     OW 5151   1.697   3.887   2.076  0.1389 -0.1883 -0.1919
 1647SOL    HW1 5152   1.700   3.792   2.068  0.9568 -0.2905  1.1176
 1647SOL    HW2 5153   1.777   3.918   2.034 -1.2241  0.1283 -2.7140
 1648SOL     OW 5154   1.999   2.905   1.619 -0.1277  0.0569 -0.0435
 1648SOL    HW1 5155   2.043   2.831   1.661  2.4580  0.8386 -1.2054
 1648SOL    HW2 5156   2.032   2.982   1.665  1.2117  0.7811 -2.0879
 1649SOL     OW 5157   3.701   1.387   3.500 -0.2254  0.2156  0.1234
 1649SOL    HW1 5158   3.631   1.355   3.558 -1.2127  0.6672 -0.8002
 1649SOL    HW2 5159   3.755   1.310   3.484 -0.4627 -0.1263  0.8947
 1650SOL     OW 5160   2.989   2.737   0.286  0.3669  0.2764 -0.3173
 1650SOL    HW1 5161   2.982   2.764   0.378 -2.5280 -0.9573 -0.0792
 1650SOL    HW2 5162   2.977   2.642   0.288 -1.2761  0.3908 -2.0595
 1651SOL     OW 5163   2.499   2.380   1.496 -0.1493 -0.2690 -0.7634
 1651SOL    HW1 5164   2.485   2.303   1.442  0.3872 -1.5206  0.7927
 1651SOL    HW2 5165   2.575   2.358   1.550 -0.8244  0.7997  0.6935
 1652SOL     OW 5166   3.461   0.287   0.712 -0.1246  0.4677  0.2354
 1652SOL    HW1 5167   3.440   0.379   0.698  0.6395  0.7638  0.9618
 1652SOL    HW2 5168   3.537   0.288   0.770  0.0674 -0.6190  0.0213
 1653SOL     OW 5169   0.618   2.720   0.449 -0.0909  0.1323 -0.3692
 1653SOL    HW1 5170   0.659   2.798   0.412  0.4603  0.5002  0.9897
 1653SOL    HW2 5171   0.551   2.695   0.384 -0.7664  2.1378 -0.4974
 1654SOL     OW 5172   3.976   3.182   2.998 -0.3014  0.0647  0.1876
 1654SOL    HW1 5173   3.955   3.101   2.951 -0.6030  0.7207 -0.8362
 1654SOL    HW2 5174   3.939   3.169   3.086  0.5435 -1.3120  0.3856
 1655SOL     OW 5175   3.952   3.949   2.155  0.0183  0.1548 -0.2531
 1655SOL    HW1 5176   3.870   3.996   2.144 -0.0752 -0.0047 -0.2274
 1655SOL    HW2 5177   3.991   3.986   2.235  0.6379  1.2258 -1.0236
 1656SOL     OW 5178   4.216   2.201   0.183  0.2984  0.0567 -0.4382
 1656SOL    HW1 5179   4.300   2.220   0.224 -0.1187  0.4883  0.2348
 1656SOL    HW2 5180   4.232   2.212   0.089  0.9996  0.0802 -0.3214
 1657SOL     OW 5181   0.871   1.142   0.884  0.0688 -0.0145 -0.8666
 1657SOL    HW1 5182   0.880   1.214   0.948 -0.3484 -0.1635 -0.6365
 1657SOL    HW2 5183   0.924   1.071   0.920 -0.5017 -0.2464 -0.4593
 1658SOL     OW 5184   0.570   1.138   0.651 -0.5548  0.0996 -0.6317
 1658SOL    HW1 5185   0.511   1.081   0.701  2.9546 -3.8910 -0.3640
 1658SOL    HW2 5186   0.605   1.199   0.716 -0.4171 -1.1447  0.5198
 1659SOL     OW 5187   2.752   0.899   3.356  0.7874  0.1167  0.3107
 1659SOL    HW1 5188   2.721   0.813   3.327  1.4432 -0.4307  1.2173
 1659SOL    HW2 5189   2.673   0.953   3.355  0.4007 -0.4259 -0.4698
 1660SOL     OW 5190   3.681   3.430   3.599  0.3147  0.3747 -0.2208
 1660SOL    HW1 5191   3.706   3.520   3.581  0.0522  0.2675 -1.1598
 1660SOL    HW2 5192   3.640   3.399   3.518 -2.1393  0.2834  0.9766
 1661SOL     OW 5193   3.032   3.478   4.033  0.2260 -0.2534  0.0403
 1661SOL    HW1 5194   3.123   3.478   4.001  1.0498 -0.9814  2.2196
 1661SOL    HW2 5195   3.024   3.560   4.082  0.7544 -1.5500  2.4382
 1662SOL     OW 5196   2.517   1.063   3.296  0.1552  0.3027 -0.0477
 1662SOL    HW1 5197   2.518   1.115   3.215  0.8786  2.4628  1.2626
 1662SOL    HW2 5198   2.428   1.072   3.329  0.2238  0.5385  0.0736
 1663SOL     OW 5199   2.473   1.912   3.701 -0.4064 -0.1012 -0.3605
 1663SOL    HW1 5200   2.440   1.972   3.767  0.7917  0.2680 -0.0857
 1663SOL    HW2 5201   2.428   1.938   3.620  1.7467  2.7348 -0.7953
 1664SOL     OW 5202   3.047   0.072   3.699 -0.7242  0.0216 -0.6564
 1664SOL    HW1 5203   3.092   0.139   3.750 -1.2832  1.8212 -2.3894
 1664SOL    HW2 5204   3.115   0.035   3.642 -0.3287 -1.2336  0.5785
 1665SOL     OW 5205   0.234   3.614   2.426  0.7032 -0.8064  0.2443
 1665SOL    HW1 5206   0.326   3.639   2.420  0.1881  0.8057 -2.4169
 1665SOL    HW2 5207   0.187   3.697   2.431 -0.6106 -1.6331  3.1656
 1666SOL     OW 5208   0.954   3.713   0.756  0.2158  0.5445  0.4556
 1666SOL    HW1 5209   0.985   3.671   0.677 -0.3502  0.9704 -0.0017
 1666SOL    HW2 5210   0.881   3.658   0.786  0.6445  0.1939  0.8805
 1667SOL     OW 5211   2.756   3.876   0.620 -0.0682  0.0298 -0.2466
 1667SOL    HW1 5212   2.822   3.943   0.603 -1.4105  1.8512  1.2153
 1667SOL    HW2 5213   2.728   3.893   0.710 -0.5188 -2.5000  0.1700
 1668SOL     OW 5214   1.193   2.260   0.745 -0.1143  0.1709  0.4261
 1668SOL    HW1 5215   1.225   2.325   0.808 -0.7106  0.8636  0.0334
 1668SOL    HW2 5216   1.143   2.311   0.682 -0.0724 -0.6000 -0.2477
 1669SOL     OW 5217   4.059   1.291   0.986  0.0157 -0.1462  0.3903
 1669SOL    HW1 5218   4.066   1.243   0.904  1.2828 -0.1580  0.4895
 1669SOL    HW2 5219   4.147   1.288   1.024 -0.2158  1.0286  1.0882
 1670SOL     OW 5220   3.091   1.869   0.592  0.1538 -0.3981 -0.4745
 1670SOL    HW1 5221   3.059   1.848   0.680 -0.0212 -1.0201 -0.6809
 1670SOL    HW2 5222   3.104   1.784   0.550 -1.4801 -0.1161 -1.6547
 1671SOL     OW 5223   0.721   0.303   2.117 -0.3043 -0.2836  0.2665
 1671SOL    HW1 5224   0.663   0.372   2.151  0.7084  0.2257  1.0081
 1671SOL    HW2 5225   0.701   0.298   2.024 -2.9070 -1.4531  0.7887
 1672SOL     OW 5226   4.120   1.102   0.473 -0.6036  0.1670  0.3363
 1672SOL    HW1 5227   4.210   1.085   0.503 -0.4322  0.0300 -0.2393
 1672SOL    HW2 5228   4.126   1.182   0.423 -0.3875 -0.9349 -1.4761
 1673SOL     OW 5229   2.485   0.656   2.630 -0.3722 -0.0693 -0.2354
 1673SOL    HW1 5230   2.453   0.581   2.581  0.9124 -1.1262  0.4730
 1673SOL    HW2 5231   2.499   0.724   2.564 -1.6719 -0.3966 -0.8677
 1674SOL     OW 5232   1.336   3.494   3.944 -0.4789  0.3062 -0.0396
 1674SOL    HW1 5233   1.305   3.443   4.019  1.6063 -1.0824 -0.0288
 1674SOL    HW2 5234   1.323   3.585   3.971 -0.2448 -0.1614  1.8433
 1675SOL     OW 5235   0.819   2.506   0.905  0.1096  0.5626 -0.2810
 1675SOL    HW1 5236   0.785   2.417   0.917 -1.6117  1.1685 -0.3026
 1675SOL    HW2 5237   0.758   2.545   0.842  0.4208  1.9685  0.2740
 1676SOL     OW 5238   2.972   1.695   1.743  0.1919 -0.8658  0.6726
 1676SOL    HW1 5239   2.916   1.716   1.669  1.7463 -3.2274 -1.3182
 1676SOL    HW2 5240   2.919   1.637   1.798  0.1489 -1.8860 -0.4175
 1677SOL     OW 5241   3.793   1.980   2.931  0.2401 -0.1454  0.2960
 1677SOL    HW1 5242   3.703   1.952   2.915  0.7112 -1.0046 -0.9922
 1677SOL    HW2 5243   3.840   1.954   2.852  1.3948  1.3358  0.4597
 1678SOL     OW 5244   1.398   4.045   1.072  0.2463  0.6151  0.7468
 1678SOL    HW1 5245   1.410   3.950   1.075  2.3231  0.7579 -0.7406
 1678SOL    HW2 5246   1.354   4.061   0.989  0.2120  0.9707  0.8338
 1679SOL     OW 5247   1.623   3.231   0.904  0.0476 -0.1057 -0.4638
 1679SOL    HW1 5248   1.711   3.256   0.934 -0.1935  0.0790  0.1099
 1679SOL    HW2 5249   1.639   3.160   0.842  0.6124  0.0107 -0.4631
 1680SOL     OW 5250   2.880   2.816   4.209  0.4058  0.8366 -0.6884
 1680SOL    HW1 5251   2.962   2.859   4.186  0.2264  0.5103 -2.0053
 1680SOL    HW2 5252   2.894   2.724   4.186 -0.1423  0.6871 -0.4322
 1681SOL     OW 5253   3.948   0.186   0.729  0.5038  0.1618 -0.3244
 1681SOL    HW1 5254   4.043   0.183   0.733  0.6184  2.2542 -0.3917
 1681SOL    HW2 5255   3.922   0.096   0.712  2.4654 -0.4384 -0.3945
 1682SOL     OW 5256   3.266   3.203   2.486  0.1289  0.5299 -0.0279
 1682SOL    HW1 5257   3.280   3.259   2.562  0.9774  0.7850 -0.3596
 1682SOL    HW2 5258   3.351   3.164   2.468 -0.6180 -1.4871  0.6502
 1683SOL     OW 5259   1.003   2.199   0.356 -0.6789  0.5397  0.1574
 1683SOL    HW1 5260   1.003   2.111   0.394 -1.2888  0.0637 -0.8806
 1683SOL    HW2 5261   0.992   2.258   0.430 -0.6901 -0.2921  0.8276
 1684SOL     OW 5262   4.209   1.237   3.064  0.5514  0.0155 -1.0383
 1684SOL    HW1 5263   4.148   1.267   3.130 -0.4739  1.0123 -2.3803
 1684SOL    HW2 5264   4.296   1.259   3.099  0.1167 -0.4879  0.4224
 1685SOL     OW 5265   0.565   1.631   4.245  0.2144 -0.6730 -0.3683
 1685SOL    HW1 5266   0.606   1.564   4.190 -0.8517 -1.4906 -0.2017
 1685SOL    HW2 5267   0.593   1.714   4.207  0.1695 -1.2236 -1.6554
 1686SOL     OW 5268   0.208   3.936   3.585  0.1432  0.0689  0.4611
 1686SOL    HW1 5269   0.246   4.018   3.617 -0.9157  0.0714  1.7966
 1686SOL    HW2 5270   0.216   3.941   3.490  0.7179  1.4071  0.5616
 1687SOL     OW 5271   0.988   2.836   3.213 -0.5616  0.4045  0.2302
 1687SOL    HW1 5272   0.985   2.921   3.256 -0.9006  0.2340  0.5456
 1687SOL    HW2 5273   1.029   2.778   3.277 -1.4367  0.0598  0.4830
 1688SOL     OW 5274   2.495   2.815   0.027  0.8300 -0.0329 -0.0264
 1688SOL    HW1 5275   2.567   2.842   0.084  1.0263 -1.8565  0.6445
 1688SOL    HW2 5276   2.526   2.735  -0.015 -0.1516  0.0973 -1.0376
 1689SOL     OW 5277   0.115   3.048   1.435 -0.5698  0.2699  0.0941
 1689SOL    HW1 5278   0.034   3.087   1.468 -0.2530  1.4711 -0.4751
 1689SOL    HW2 5279   0.177   3.059   1.507 -0.3309  1.3789 -0.2546
 1690SOL     OW 5280   1.875   3.076   0.136 -0.3942 -0.2168 -0.1014
 1690SOL    HW1 5281   1.961   3.117   0.136 -0.6250  0.2734  0.5143
 1690SOL    HW2 5282   1.813   3.148   0.121 -0.7427 -0.4645  0.1325
 1691SOL     OW 5283   1.536   3.834   2.315  0.4794 -0.5686  0.5682
 1691SOL    HW1 5284   1.614   3.840   2.260 -0.3294 -0.5181 -0.6161
 1691SOL    HW2 5285   1.566   3.789   2.394  1.8268 -0.0338  0.3948
 1692SOL     OW 5286   3.686   4.270   1.783  0.0698  0.0247 -0.3207
 1692SOL    HW1 5287   3.768   4.298   1.824 -0.2068 -0.0314  0.2756
 1692SOL    HW2 5288   3.703   4.278   1.689  0.6946  0.1972 -0.2006
 1693SOL     OW 5289   0.790   0.141   2.967  0.2260 -0.1997  0.0139
 1693SOL    HW1 5290   0.880   0.155   2.996  0.2262  0.9529 -0.4805
 1693SOL    HW2 5291   0.798   0.105   2.879  0.2067 -1.0682  0.3646
 1694SOL     OW 5292   1.665   1.565   2.720  0.0325 -0.3103 -0.3724
 1694SOL    HW1 5293   1.629   1.652   2.737 -0.4663 -0.6701  0.4886
 1694SOL    HW2 5294   1.760   1.579   2.715 -0.0140  0.2300  0.1201
 1695SOL     OW 5295   2.959   0.370   1.744  0.4018 -0.3772 -0.3460
 1695SOL    HW1 5296   2.973   0.462   1.767  1.1924 -0.5637 -0.0425
 1695SOL    HW2 5297   2.877   0.369   1.695 -0.1170  0.3518  0.4982
 1696SOL     OW 5298   4.224   3.406   3.595 -0.2117 -0.0291 -0.3389
 1696SOL    HW1 5299   4.147   3.387   3.541 -0.4671  1.8301 -0.7017
 1696SOL    HW2 5300   4.298   3.398   3.535 -0.1117 -1.6301 -0.0363
 1697SOL     OW 5301   3.332   0.684   1.018 -0.0854  0.0078  0.2200
 1697SOL    HW1 5302   3.407   0.675   0.960  0.2295 -2.2635  0.8674
 1697SOL    HW2 5303   3.292   0.768   0.994  0.6488 -0.3470 -2.4955
 1698SOL     OW 5304   1.263   2.086   1.058 -0.3513  0.2345  0.3545
 1698SOL    HW1 5305   1.295   1.999   1.036 -1.1546 -0.9724  3.3558
 1698SOL    HW2 5306   1.328   2.121   1.118 -0.3114  1.5097 -0.4034
 1699SOL     OW 5307   2.403   1.673   3.257  0.7317 -0.1858 -0.7514
 1699SOL    HW1 5308   2.453   1.636   3.185  1.5783 -0.6632  0.0611
 1699SOL    HW2 5309   2.468   1.719   3.311  0.1199  0.1686 -0.2979
 1700SOL     OW 5310   2.187   2.112   3.035  0.2121 -0.1672 -0.1516
 1700SOL    HW1 5311   2.150   2.059   2.964 -0.3947 -0.0422  0.0652
 1700SOL    HW2 5312   2.248   2.053   3.079  2.8971  0.5895 -2.5370
 1701SOL     OW 5313   0.722   2.787   3.357 -0.2113 -0.4162 -0.4774
 1701SOL    HW1 5314   0.752   2.734   3.431  0.7198 -0.4593 -0.8724
 1701SOL    HW2 5315   0.714   2.726   3.285  0.0042 -0.1809 -0.7035
 1702SOL     OW 5316   1.124   4.032   2.688  0.5314  0.0970  0.1841
 1702SOL    HW1 5317   1.127   4.042   2.593  1.1436 -1.2324  0.0307
 1702SOL    HW2 5318   1.049   3.975   2.704 -1.3759  2.5972  0.7963
 1703SOL     OW 5319   1.975   3.843   0.934  0.3443 -0.0315 -0.0802
 1703SOL    HW1 5320   2.015   3.921   0.895  0.6521 -0.0028  0.2876
 1703SOL    HW2 5321   2.049   3.786   0.954  0.0256 -1.1127 -1.7971
 1704SOL     OW 5322   1.323   2.236   0.391  0.4923  0.0577 -0.1847
 1704SOL    HW1 5323   1.377   2.170   0.348  1.7531  1.2241 -0.4626
 1704SOL    HW2 5324   1.235   2.220   0.358  1.4387  1.1495 -3.6307
 1705SOL     OW 5325   0.065   4.227   0.770  0.1549  0.4679  0.2451
 1705SOL    HW1 5326   0.153   4.190   0.772  0.6258  1.5631  0.5448
 1705SOL    HW2 5327   0.039   4.232   0.863 -1.0797 -1.7273  0.1105
 1706SOL     OW 5328   1.420   1.425   4.224  0.2045  0.6339 -0.1839
 1706SOL    HW1 5329   1.387   1.393   4.140 -1.3733  1.2820  0.1498
 1706SOL    HW2 5330   1.499   1.474   4.201  0.0031  0.4938 -1.2466
 1707SOL     OW 5331   0.575   3.338   3.886 -0.7651  0.0639  0.3490
 1707SOL    HW1 5332   0.643   3.380   3.938 -1.7225 -0.3188  1.9995
 1707SOL    HW2 5333   0.554   3.402   3.818  1.2246  0.1756 -0.2029
 1708SOL     OW 5334   1.220   3.674   3.295 -0.9047 -0.2648  0.0639
 1708SOL    HW1 5335   1.306   3.665   3.253 -1.4203 -1.7824 -0.7456
 1708SOL    HW2 5336   1.157   3.662   3.223 -1.8356  1.6797  0.4804
 1709SOL     OW 5337   3.438   0.855   0.174  0.2066  0.0558  0.2981
 1709SOL    HW1 5338   3.355   0.882   0.135  1.1602  0.2095 -1.7778
 1709SOL    HW2 5339   3.499   0.925   0.152  1.1829 -0.6598  0.6325
 1710SOL     OW 5340   3.769   0.762   3.024  0.0247 -0.7084 -0.3142
 1710SOL    HW1 5341   3.792   0.852   3.047 -0.4917 -0.4610 -0.7615
 1710SOL    HW2 5342   3.836   0.709   3.067  0.4026 -0.1049 -0.1463
 1711SOL     OW 5343   2.410   0.089   2.239  0.6959 -0.3704 -0.5961
 1711SOL    HW1 5344   2.351   0.111   2.167  0.0737 -1.2331 -0.3718
 1711SOL    HW2 5345   2.369   0.013   2.281  0.4795  0.7599  1.3358
 1712SOL     OW 5346   3.509   2.284   4.263 -0.6279 -0.3595 -0.0812
 1712SOL    HW1 5347   3.516   2.222   4.190 -0.0445  1.3750 -1.5588
 1712SOL    HW2 5348   3.592   2.331   4.262 -1.2487  0.7956  0.6863
 1713SOL     OW 5349   3.047   1.544   1.313  0.0393  0.2883  0.2192
 1713SOL    HW1 5350   3.039   1.636   1.338 -0.9543 -0.6180  3.7379
 1713SOL    HW2 5351   3.121   1.511   1.363 -0.3422 -1.1043 -0.0806
 1714SOL     OW 5352   3.371   2.808   1.913 -0.6035 -0.1776  0.2386
 1714SOL    HW1 5353   3.412   2.761   1.841 -0.6965  2.3102 -1.5609
 1714SOL    HW2 5354   3.278   2.787   1.906 -0.4277 -1.1202  0.6009
 1715SOL     OW 5355   2.175   2.321   1.109 -0.0099 -0.1729  0.1855
 1715SOL    HW1 5356   2.182   2.302   1.015  2.7922 -1.5353  0.5687
 1715SOL    HW2 5357   2.216   2.408   1.118  1.2171 -0.7361  0.2906
 1716SOL     OW 5358   1.919   3.718   0.566  0.4479  0.4570  0.4031
 1716SOL    HW1 5359   1.924   3.629   0.531  0.3321  0.5046  0.2661
 1716SOL    HW2 5360   2.006   3.756   0.549  0.0092  0.9029 -0.9642
 1717SOL     OW 5361   3.402   3.555   2.426 -0.5358  0.3992 -0.3895
 1717SOL    HW1 5362   3.398   3.497   2.502  0.3265  2.8617  1.6828
 1717SOL    HW2 5363   3.311   3.574   2.405 -0.7842 -0.3116  0.0210
 1718SOL     OW 5364   1.959   3.278   1.223 -1.1718 -0.2960  0.0374
 1718SOL    HW1 5365   1.872   3.319   1.220 -0.8418  0.3424 -1.1277
 1718SOL    HW2 5366   1.991   3.296   1.312 -2.5600 -1.2698  0.7739
 1719SOL     OW 5367   2.480   0.320   3.883  0.0042  0.1705 -0.0899
 1719SOL    HW1 5368   2.534   0.250   3.848  0.6974  2.1129 -3.3801
 1719SOL    HW2 5369   2.390   0.293   3.865  0.2815  0.2359 -1.7773
 1720SOL     OW 5370   2.963   3.047   1.847 -0.4992  0.3769 -0.1361
 1720SOL    HW1 5371   2.945   3.012   1.760 -0.5136 -1.0586  0.4248
 1720SOL    HW2 5372   3.053   3.081   1.840 -0.0087 -0.9070 -0.3706
 1721SOL     OW 5373   0.439   2.963   1.345  0.5379 -0.0236  0.1630
 1721SOL    HW1 5374   0.392   2.888   1.380 -1.3132  1.1353  0.2859
 1721SOL    HW2 5375   0.425   2.958   1.250  0.8579 -0.1108  0.1189
 1722SOL     OW 5376   1.169   2.479   3.213  0.0353  0.5391 -0.2535
 1722SOL    HW1 5377   1.138   2.450   3.127  2.3100 -0.5057 -0.7997
 1722SOL    HW2 5378   1.258   2.511   3.197 -0.3842  2.7330  1.3264
 1723SOL     OW 5379   2.392   1.098   4.249  0.1695  0.3940  0.1493
 1723SOL    HW1 5380   2.385   1.183   4.207 -0.0491  1.6738  2.5772
 1723SOL    HW2 5381   2.307   1.086   4.293  0.8728 -0.1224  1.4308
 1724SOL     OW 5382   0.441   0.632   3.767 -0.0472  0.3847 -0.2215
 1724SOL    HW1 5383   0.525   0.622   3.724  0.0741  0.6807 -0.0607
 1724SOL    HW2 5384   0.380   0.652   3.696  0.0116  0.1397 -0.3414
 1725SOL     OW 5385   0.667   0.242   0.126  0.1398  0.1168 -0.2884
 1725SOL    HW1 5386   0.751   0.212   0.159  0.0760  0.5081  0.2478
 1725SOL    HW2 5387   0.660   0.205   0.038  1.2528  0.7807 -0.6738
 1726SOL     OW 5388   1.238   3.993   1.957 -0.1193 -0.4048 -0.5046
 1726SOL    HW1 5389   1.305   3.975   1.892 -1.1239  0.6669 -1.8990
 1726SOL    HW2 5390   1.155   3.985   1.909 -0.9403 -0.5088  0.8686
 1727SOL     OW 5391   3.049   1.161   1.011  0.0951 -0.5419 -0.4763
 1727SOL    HW1 5392   3.110   1.097   0.975  1.3800 -0.7845  1.9149
 1727SOL    HW2 5393   3.100   1.209   1.076 -1.5268  1.2311 -0.4200
 1728SOL     OW 5394   3.181   0.790   2.286  0.1642 -0.3817 -0.3156
 1728SOL    HW1 5395   3.120   0.717   2.276  0.6154 -0.7947 -0.0659
 1728SOL    HW2 5396   3.151   0.855   2.222 -0.9731 -0.2808  0.3080
 1729SOL     OW 5397   1.757   2.686   0.040 -0.1432  0.1772 -0.5934
 1729SOL    HW1 5398   1.693   2.729   0.097 -0.7964 -0.6324 -0.6978
 1729SOL    HW2 5399   1.736   2.717  -0.048  0.9565  1.5398 -0.4147
 1730SOL     OW 5400   3.446   3.761   4.056 -0.2567  0.6432  0.2773
 1730SOL    HW1 5401   3.465   3.770   4.149  1.1987 -0.7158  0.1622
 1730SOL    HW2 5402   3.532   3.756   4.014 -0.8828  0.8113 -1.0901
 1731SOL     OW 5403   0.335   1.158   1.835  0.0371 -0.0876 -0.1488
 1731SOL    HW1 5404   0.354   1.064   1.843 -1.5668 -0.5175 -1.0257
 1731SOL    HW2 5405   0.373   1.183   1.751  1.2129  0.2663  0.4728
 1732SOL     OW 5406   2.844   0.601   0.491 -0.2963  0.3029  0.1811
 1732SOL    HW1 5407   2.765   0.596   0.437 -0.9557 -1.9143  1.2349
 1732SOL    HW2 5408   2.815   0.645   0.571  0.2128  1.8079 -0.4166
 1733SOL     OW 5409   0.793   1.912   0.798  0.0527 -0.1029 -0.0533
 1733SOL    HW1 5410   0.874   1.958   0.819  0.1720  0.1268 -0.9612
 1733SOL    HW2 5411   0.810   1.872   0.713 -0.1132 -1.6937  0.6205
 1734SOL     OW 5412   1.379   3.857   0.744  0.6159  0.2615  0.1285
 1734SOL    HW1 5413   1.332   3.810   0.675  1.7119  0.6610 -0.9107
 1734SOL    HW2 5414   1.404   3.789   0.807 -1.4876  0.0551  0.8308
 1735SOL     OW 5415   1.086   0.332   2.872 -0.0410 -0.0903  0.5597
 1735SOL    HW1 5416   1.089   0.271   2.945  2.5152  2.0612  2.4672
 1735SOL    HW2 5417   1.148   0.401   2.896 -2.2600  2.9766 -1.6735
 1736SOL     OW 5418   2.108   3.145   1.025  0.4261 -0.2488 -0.1917
 1736SOL    HW1 5419   2.066   3.196   1.094  0.6826 -0.0635 -0.1757
 1736SOL    HW2 5420   2.046   3.073   1.008  0.5549 -0.5405  0.5279
 1737SOL     OW 5421   0.810   3.505   2.539 -0.4055  0.1000  0.1497
 1737SOL    HW1 5422   0.819   3.416   2.505  0.6218  0.2538 -0.0455
 1737SOL    HW2 5423   0.894   3.547   2.516 -0.3929  0.7492  1.3088
 1738SOL     OW 5424   1.299   3.396   1.586  0.4994 -0.3712  0.4621
 1738SOL    HW1 5425   1.243   3.319   1.599  1.2222 -0.6426  2.0999
 1738SOL    HW2 5426   1.275   3.456   1.656 -0.8896  1.4814 -1.4554
 1739SOL     OW 5427   0.686   2.537   4.024 -0.3419 -0.1106  0.1056
 1739SOL    HW1 5428   0.696   2.622   4.066  0.1858 -0.3507  0.4791
 1739SOL    HW2 5429   0.752   2.481   4.066  0.2799 -0.3385 -1.1103
 1740SOL     OW 5430   1.752   3.810   1.207 -0.0155  0.8927 -0.2118
 1740SOL    HW1 5431   1.822   3.749   1.229 -0.1934  0.6682 -0.2697
 1740SOL    HW2 5432   1.700   3.818   1.286 -0.9165 -0.2630 -0.6683
 1741SOL     OW 5433   0.874   3.654   1.325 -0.0303  0.2124  0.0222
 1741SOL    HW1 5434   0.941   3.587   1.315  1.1167  1.3371 -0.0752
 1741SOL    HW2 5435   0.858   3.686   1.236  1.7658  2.2384  0.3619
 1742SOL     OW 5436   3.274   3.230   0.138 -0.3316 -0.0383  0.1119
 1742SOL    HW1 5437   3.222   3.305   0.168  1.1286  1.0075  0.1149
 1742SOL    HW2 5438   3.226   3.198   0.061 -1.9393 -0.2573  1.1412
 1743SOL     OW 5439   0.491   4.122   0.506  0.0087  0.1080  0.1750
 1743SOL    HW1 5440   0.430   4.196   0.511 -0.7416 -0.5295  0.7691
 1743SOL    HW2 5441   0.544   4.140   0.429 -0.1922  1.2457  0.2859
 1744SOL     OW 5442   2.813   1.279   3.832 -0.1795  0.4047 -0.7493
 1744SOL    HW1 5443   2.849   1.216   3.895 -3.1080  0.2102  0.8859
 1744SOL    HW2 5444   2.859   1.361   3.851  1.5099 -0.4654 -0.8484
 1745SOL     OW 5445   2.626   3.528   3.967 -0.2471  0.2055  0.7640
 1745SOL    HW1 5446   2.706   3.519   3.915 -0.2434  2.5721  0.2256
 1745SOL    HW2 5447   2.657   3.525   4.058  0.2761 -0.1345  0.5833
 1746SOL     OW 5448   0.552   3.769   3.306 -0.0152 -0.2855  0.6504
 1746SOL    HW1 5449   0.612   3.840   3.284 -0.4654 -0.1864 -0.3181
 1746SOL    HW2 5450   0.512   3.795   3.389 -2.4530  2.1162 -1.1265
 1747SOL     OW 5451   0.029   3.436   1.742 -0.5080 -0.0632  0.1668
 1747SOL    HW1 5452   0.106   3.481   1.706  1.6432 -1.8936  2.1429
 1747SOL    HW2 5453  -0.029   3.425   1.667  1.7791  0.1278 -1.7680
 1748SOL     OW 5454   0.549   0.831   2.966 -0.1328 -0.0109 -0.2885
 1748SOL    HW1 5455   0.601   0.846   3.045 -1.1834 -1.9235  0.8366
 1748SOL    HW2 5456   0.611   0.791   2.904  0.3131 -0.0506  0.1717
 1749SOL     OW 5457   0.259   0.556   1.461 -0.7678 -0.6302 -0.1470
 1749SOL    HW1 5458   0.278   0.635   1.411 -0.2078 -1.3515 -1.0963
 1749SOL    HW2 5459   0.346   0.522   1.485 -0.9744 -1.4179 -0.4890
 1750SOL     OW 5460   1.918   0.434   2.986  0.0976  0.0170  0.0388
 1750SOL    HW1 5461   1.900   0.362   2.925  1.3284 -1.0704  0.8932
 1750SOL    HW2 5462   2.001   0.471   2.956  0.6648 -0.4657  0.9760
 1751SOL     OW 5463   2.005   2.669   1.128 -0.1054  0.5724  0.5706
 1751SOL    HW1 5464   2.031   2.659   1.036 -3.1939  3.2428 -0.7620
 1751SOL    HW2 5465   2.088   2.683   1.174  1.4360  1.1181 -2.1020
 1752SOL     OW 5466   0.077   2.580   0.175  0.1568  0.1939  0.2625
 1752SOL    HW1 5467   0.066   2.525   0.097 -0.4160  0.8627 -0.1346
 1752SOL    HW2 5468   0.001   2.560   0.230  0.2986  0.0963  0.4240
 1753SOL     OW 5469   4.199   1.219   3.846  0.6623 -0.1300 -0.5573
 1753SOL    HW1 5470   4.189   1.306   3.885 -1.3291  0.0169 -1.2650
 1753SOL    HW2 5471   4.207   1.160   3.921  0.7162  0.5308 -0.0366
 1754SOL     OW 5472   1.492   4.263   0.637 -0.0666  0.2683  0.0179
 1754SOL    HW1 5473   1.450   4.214   0.567  0.2179  0.5781 -0.3798
 1754SOL    HW2 5474   1.583   4.273   0.607 -0.0136  0.6382  0.3016
 1755SOL     OW 5475   0.819   4.073   4.178 -0.1839  0.3312  0.3802
 1755SOL    HW1 5476   0.855   4.017   4.248 -1.0449 -0.2411  0.3785
 1755SOL    HW2 5477   0.736   4.104   4.213 -1.0286 -0.6338 -0.7067
 1756SOL     OW 5478   2.520   2.675   4.008 -0.2047  0.2181 -0.2388
 1756SOL    HW1 5479   2.606   2.633   4.018  0.5308  1.2099 -1.8555
 1756SOL    HW2 5480   2.540   2.758   3.965 -1.6190  2.1771  2.6167
 1757SOL     OW 5481   2.873   3.082   1.118 -0.1823  0.0168 -0.7569
 1757SOL    HW1 5482   2.900   3.000   1.160  1.5012 -0.4477 -2.5599
 1757SOL    HW2 5483   2.943   3.100   1.054 -0.4869  2.8740 -0.4339
 1758SOL     OW 5484   2.749   3.466   1.682 -0.5093  0.0106 -0.0953
 1758SOL    HW1 5485   2.693   3.511   1.745 -1.0166 -0.2904 -0.3291
 1758SOL    HW2 5486   2.826   3.439   1.733 -0.1768  1.1665  0.0389
 1759SOL     OW 5487   2.573   0.582   2.873  0.3677 -0.0396  0.4399
 1759SOL    HW1 5488   2.501   0.588   2.810  0.5586  1.8121  0.3364
 1759SOL    HW2 5489   2.652   0.597   2.820  0.6297  0.2766  0.9093
 1760SOL     OW 5490   2.122   2.723   0.049  0.2635  0.0441 -0.6010
 1760SOL    HW1 5491   2.059   2.769  -0.007 -0.0670  0.4731  0.1105
 1760SOL    HW2 5492   2.173   2.669  -0.012  0.0227  0.6218 -1.3351
 1761SOL     OW 5493   1.072   1.771   0.173  0.3440  0.2558 -0.0179
 1761SOL    HW1 5494   1.082   1.740   0.263 -0.9751 -1.2305 -0.3494
 1761SOL    HW2 5495   1.138   1.723   0.124 -0.9999 -1.3135 -0.3491
 1762SOL     OW 5496   2.241   3.778   3.739 -0.2031 -0.1586 -0.2762
 1762SOL    HW1 5497   2.277   3.864   3.716 -0.9869  0.1813 -0.2465
 1762SOL    HW2 5498   2.294   3.749   3.813 -1.0757  1.1163  0.9020
 1763SOL     OW 5499   3.835   0.091   4.249  0.2075 -0.5421  0.3005
 1763SOL    HW1 5500   3.806   0.046   4.169  0.9000 -2.0484  0.8689
 1763SOL    HW2 5501   3.759   0.143   4.276 -0.0335  0.0190 -1.3293
 1764SOL     OW 5502   2.318   2.313   4.226  0.0301  0.2561  0.1531
 1764SOL    HW1 5503   2.288   2.315   4.317  0.0397 -1.1258  0.2030
 1764SOL    HW2 5504   2.303   2.402   4.194 -1.5187  0.3377  1.0105
 1765SOL     OW 5505   2.178   3.695   4.084 -0.1224  0.5511 -0.0894
 1765SOL    HW1 5506   2.262   3.691   4.038  0.3738  2.5213  0.5710
 1765SOL    HW2 5507   2.169   3.608   4.123  1.6088  0.2763 -0.1965
 1766SOL     OW 5508   4.114   2.963   0.415  0.3272 -0.2178  0.4719
 1766SOL    HW1 5509   4.086   2.977   0.324 -0.4220 -0.5132  0.6519
 1766SOL    HW2 5510   4.086   3.041   0.461 -2.7137 -1.5821  1.2105
 1767SOL     OW 5511   1.298   0.054   0.174  0.1102  0.2124  0.1133
 1767SOL    HW1 5512   1.286   0.149   0.174  2.7085  0.6162 -0.1072
 1767SOL    HW2 5513   1.372   0.039   0.232 -0.6604 -1.7893  0.6720
 1768SOL     OW 5514   2.071   4.097   0.845  0.1671 -0.2065  0.4274
 1768SOL    HW1 5515   2.163   4.104   0.871  0.2948  1.3682 -0.3481
 1768SOL    HW2 5516   2.071   4.119   0.752 -1.2038  1.7426  0.8423
 1769SOL     OW 5517   0.494   2.769   3.904 -0.6768 -0.4895 -0.1733
 1769SOL    HW1 5518   0.537   2.854   3.915  2.9933 -2.0837 -0.7680
 1769SOL    HW2 5519   0.481   2.761   3.810 -2.3917 -0.0553 -0.0051
 1770SOL     OW 5520   2.775   1.507   0.496 -0.0969  0.0939 -0.1591
 1770SOL    HW1 5521   2.696   1.533   0.542 -0.3398 -0.0647 -0.4811
 1770SOL    HW2 5522   2.824   1.454   0.560 -0.5805 -0.3915 -0.1900
 1771SOL     OW 5523   2.898   2.749   0.549 -0.1199 -0.0763  0.2979
 1771SOL    HW1 5524   2.897   2.829   0.601 -0.8458  0.6660 -0.8205
 1771SOL    HW2 5525   2.928   2.681   0.610 -2.5503  0.4183  2.2145
 1772SOL     OW 5526   3.488   0.177   3.140  0.0976  0.1348 -0.5852
 1772SOL    HW1 5527   3.556   0.212   3.199  0.3890 -0.6121 -0.4574
 1772SOL    HW2 5528   3.406   0.192   3.187  0.4090 -1.3500  0.5023
 1773SOL     OW 5529   3.198   0.897   0.481 -0.1681  0.2905  0.3808
 1773SOL    HW1 5530   3.245   0.962   0.532 -0.0991  0.8951 -0.4204
 1773SOL    HW2 5531   3.112   0.936   0.464 -1.3705 -1.1696  2.5924
 1774SOL     OW 5532   0.345   4.010   2.636  0.1752 -0.3038 -0.5663
 1774SOL    HW1 5533   0.348   4.003   2.731  0.3040 -0.7490 -0.6008
 1774SOL    HW2 5534   0.270   3.955   2.610 -1.1466  1.4164 -0.5815
 1775SOL     OW 5535   1.595   3.784   3.215 -0.3629  0.2460 -0.8911
 1775SOL    HW1 5536   1.689   3.784   3.230 -0.1512 -0.8624 -2.0485
 1775SOL    HW2 5537   1.563   3.704   3.258 -0.6791  0.2979 -1.0228
 1776SOL     OW 5538   4.084   3.323   2.204 -0.4962  0.0675  0.1538
 1776SOL    HW1 5539   4.008   3.366   2.163 -1.1540 -1.6329 -0.4996
 1776SOL    HW2 5540   4.122   3.391   2.260 -2.2517  1.1049  0.1802
 1777SOL     OW 5541   3.605   3.329   2.641  0.0261  0.0761 -0.0017
 1777SOL    HW1 5542   3.609   3.356   2.549 -2.0514 -0.7608 -0.3870
 1777SOL    HW2 5543   3.577   3.408   2.688  2.3371  0.8814  0.1826
 1778SOL     OW 5544   4.093   2.825   1.200 -0.1159 -0.5406 -0.0158
 1778SOL    HW1 5545   4.046   2.823   1.116 -0.4650 -2.6571  0.1754
 1778SOL    HW2 5546   4.185   2.822   1.175 -0.2288 -1.6669 -0.3373
 1779SOL     OW 5547   2.063   3.088   0.457  0.4756 -0.1278  0.2262
 1779SOL    HW1 5548   2.025   3.010   0.499 -1.2886  1.4183  1.6547
 1779SOL    HW2 5549   2.015   3.096   0.375  1.1127 -0.8560 -0.2417
 1780SOL     OW 5550   0.581   2.008   0.221  0.1366 -0.3616 -0.5669
 1780SOL    HW1 5551   0.553   1.918   0.235 -0.4579  0.0321  1.0909
 1780SOL    HW2 5552   0.586   2.045   0.310 -0.9475  1.6011 -1.2696
 1781SOL     OW 5553   0.356   1.857   0.823  0.5640 -0.4415 -0.0778
 1781SOL    HW1 5554   0.264   1.843   0.843  0.8453 -0.4311  1.3214
 1781SOL    HW2 5555   0.403   1.818   0.897  1.7091 -0.9328 -1.0295
 1782SOL     OW 5556   1.701   2.882   1.693 -0.6817 -0.5318 -0.0419
 1782SOL    HW1 5557   1.679   2.834   1.613  1.0083 -0.9807 -0.2862
 1782SOL    HW2 5558   1.786   2.847   1.718  0.6399  2.3106 -0.2106
 1783SOL     OW 5559   0.792   1.551   3.636 -0.2652  0.1164 -0.1170
 1783SOL    HW1 5560   0.834   1.608   3.571  1.4824 -1.4865 -0.4687
 1783SOL    HW2 5561   0.716   1.515   3.590 -0.8033  1.3378 -0.2248
 1784SOL     OW 5562   1.153   2.996   2.993  0.2601 -0.4819 -0.1448
 1784SOL    HW1 5563   1.067   2.961   2.969 -0.0254 -0.8709  1.3346
 1784SOL    HW2 5564   1.169   2.961   3.081  1.0738  1.1525  0.3849
 1785SOL     OW 5565   0.079   1.734   1.294 -0.1517  0.2466  0.1925
 1785SOL    HW1 5566   0.157   1.700   1.338 -1.4538 -0.8018  1.8416
 1785SOL    HW2 5567   0.110   1.812   1.247  1.7918  0.1222  1.1491
 1786SOL     OW 5568   1.229   1.154   4.222 -0.5555 -0.5802 -0.1558
 1786SOL    HW1 5569   1.235   1.212   4.298 -1.2758 -2.8452  1.7760
 1786SOL    HW2 5570   1.266   1.204   4.150 -0.1374  1.8192  1.6065
 1787SOL     OW 5571   1.124   1.233   3.803 -0.4330 -0.1210 -0.2874
 1787SOL    HW1 5572   1.064   1.173   3.759 -0.3736 -0.8415  0.5668
 1787SOL    HW2 5573   1.088   1.320   3.786 -1.3426 -0.4921 -0.3623
 1788SOL     OW 5574   0.904   2.174   1.817 -0.3814 -0.1514 -0.3245
 1788SOL    HW1 5575   0.853   2.220   1.751 -0.8732 -0.0881  0.0935
 1788SOL    HW2 5576   0.838   2.130   1.871 -0.2140  2.0781  1.8709
 1789SOL     OW 5577   1.891   0.706   3.588  0.0023  0.0572 -0.5986
 1789SOL    HW1 5578   1.816   0.743   3.634  1.4133  1.6711  0.5505
 1789SOL    HW2 5579   1.902   0.619   3.625  0.2240  0.7812  1.1215
 1790SOL     OW 5580   3.786   3.668   3.971 -0.2197 -0.0980  0.0949
 1790SOL    HW1 5581   3.818   3.581   3.948  0.8390  0.5676 -1.0565
 1790SOL    HW2 5582   3.806   3.722   3.894 -1.7846  0.9415  0.3711
 1791SOL     OW 5583   2.205   2.783   1.426  0.1451  0.0777 -0.2364
 1791SOL    HW1 5584   2.297   2.758   1.435  0.9838  2.4859 -1.3867
 1791SOL    HW2 5585   2.207   2.876   1.402 -2.5071 -0.2577 -2.2754
 1792SOL     OW 5586   1.815   4.000   3.727 -0.1427 -0.3204  0.1240
 1792SOL    HW1 5587   1.907   3.982   3.748 -0.6717 -4.1625 -0.1630
 1792SOL    HW2 5588   1.788   4.063   3.793  2.7536  1.3103 -0.0462
 1793SOL     OW 5589   1.898   1.962   4.272  0.5922 -0.2755 -0.0433
 1793SOL    HW1 5590   1.930   1.881   4.233 -1.9367 -1.5330  0.2353
 1793SOL    HW2 5591   1.909   2.028   4.204  2.2380 -0.9457 -0.4628
 1794SOL     OW 5592   0.130   1.580   3.861 -0.0318  0.8650  0.5059
 1794SOL    HW1 5593   0.177   1.506   3.900  0.1844  1.4191  1.3223
 1794SOL    HW2 5594   0.180   1.657   3.888 -0.3050  1.3254 -0.2612
 1795SOL     OW 5595   2.746   4.107   4.090  0.0892 -0.3114  0.1876
 1795SOL    HW1 5596   2.759   4.163   4.166  0.2673 -0.2533  0.1162
 1795SOL    HW2 5597   2.713   4.025   4.125  1.0233 -0.6055  0.4226
 1796SOL     OW 5598   3.418   0.008   0.090  0.1281  0.3791 -0.0608
 1796SOL    HW1 5599   3.402   0.098   0.119 -1.7832 -0.5772  2.1804
 1796SOL    HW2 5600   3.475  -0.029   0.157 -1.2607 -0.7895  0.5410
 1797SOL     OW 5601   4.285   3.612   0.412 -0.2513  0.4796 -0.5463
 1797SOL    HW1 5602   4.291   3.707   0.413 -1.0549  0.5339 -0.1957
 1797SOL    HW2 5603   4.280   3.589   0.319 -0.4851  0.8152 -0.6188
 1798SOL     OW 5604   4.153   2.785   0.606  0.2523  0.2565  0.1886
 1798SOL    HW1 5605   4.121   2.711   0.553  1.7716 -0.2288 -0.0956
 1798SOL    HW2 5606   4.147   2.860   0.547 -2.7222  0.7332  0.9428
 1799SOL     OW 5607   1.134   1.380   0.952  0.5449  0.3711  0.3268
 1799SOL    HW1 5608   1.210   1.393   1.009  0.6452 -0.0531  0.2941
 1799SOL    HW2 5609   1.153   1.299   0.906  0.0721  0.2714  0.3071
 1800SOL     OW 5610   2.739   3.672   2.577  0.3901  0.1358  0.0716
 1800SOL    HW1 5611   2.728   3.675   2.482  0.6566 -3.2217 -0.1912
 1800SOL    HW2 5612   2.828   3.704   2.593  0.3296  0.7432 -0.8089
 1801SOL     OW 5613   2.287   3.345   3.435  0.1141 -0.3347 -0.1388
 1801SOL    HW1 5614   2.329   3.259   3.435 -0.3127 -0.5477 -0.4977
 1801SOL    HW2 5615   2.264   3.360   3.527  0.3301 -0.5324 -0.0501
 1802SOL     OW 5616   1.192   1.071   3.189  0.5441  0.2264 -0.1034
 1802SOL    HW1 5617   1.180   1.146   3.247 -1.8055 -0.1605  0.0076
 1802SOL    HW2 5618   1.286   1.052   3.193  0.7584  1.4418  2.0062
 1803SOL     OW 5619   1.587   0.695   2.264  0.1616 -0.1325  0.8057
 1803SOL    HW1 5620   1.651   0.674   2.332  0.4223  0.6323  0.8087
 1803SOL    HW2 5621   1.587   0.791   2.260 -0.6644 -0.1378  0.5009
 1804SOL     OW 5622   3.198   1.372   2.996 -0.2518 -0.6396  0.3776
 1804SOL    HW1 5623   3.121   1.316   3.007 -0.8243  0.0548 -0.0469
 1804SOL    HW2 5624   3.180   1.448   3.051 -1.6229  1.2967 -2.4884
 1805SOL     OW 5625   2.982   3.710   4.149 -0.2774  0.4009  0.5170
 1805SOL    HW1 5626   3.027   3.789   4.178 -0.4831  0.6782  0.0841
 1805SOL    HW2 5627   2.949   3.731   4.062 -2.5086  0.6984  1.3844
 1806SOL     OW 5628   3.436   0.326   2.129  0.1406 -0.2591 -0.4363
 1806SOL    HW1 5629   3.530   0.330   2.146  0.1557  0.8303 -0.7225
 1806SOL    HW2 5630   3.426   0.256   2.064  1.1685  1.8108 -3.0014
 1807SOL     OW 5631   0.260   3.029   3.797 -0.6345  0.3612  0.4460
 1807SOL    HW1 5632   0.329   3.093   3.778 -0.7279 -0.0350 -1.4291
 1807SOL    HW2 5633   0.305   2.961   3.848  0.6535 -0.3563 -1.5308
 1808SOL     OW 5634   4.003   2.773   3.269  0.2065  0.6093 -0.5260
 1808SOL    HW1 5635   4.041   2.701   3.220 -0.2436 -0.6618  0.9185
 1808SOL    HW2 5636   3.923   2.737   3.307 -2.2143  2.9864 -2.9253
 1809SOL     OW 5637   2.975   1.017   0.364  0.2545 -0.6450 -0.0038
 1809SOL    HW1 5638   2.958   1.107   0.337  1.0352 -0.3194  0.5412
 1809SOL    HW2 5639   2.895   0.988   0.407 -0.0884 -0.3019 -0.4010
 1810SOL     OW 5640   1.105   2.369   4.295  0.1206 -0.2104 -0.4828
 1810SOL    HW1 5641   1.121   2.433   4.365 -0.4680 -0.5229 -0.0548
 1810SOL    HW2 5642   1.191   2.358   4.253  0.2305  0.8815 -0.5901
 1811SOL     OW 5643   3.751   2.241   3.448  0.1608 -0.0773 -0.3251
 1811SOL    HW1 5644   3.762   2.212   3.538 -0.4202  0.5266 -0.0538
 1811SOL    HW2 5645   3.841   2.249   3.414  0.4333  0.7192  0.5411
 1812SOL     OW 5646   1.108   2.878   0.456 -0.0313  0.0506  0.1220
 1812SOL    HW1 5647   1.195   2.853   0.487  0.2380  0.1730 -0.5197
 1812SOL    HW2 5648   1.056   2.798   0.462  0.0064  0.0698  0.8856
 1813SOL     OW 5649   3.657   0.731   2.030  0.0576 -0.2336 -0.4387
 1813SOL    HW1 5650   3.664   0.804   1.968 -1.0085 -0.0855 -0.4064
 1813SOL    HW2 5651   3.618   0.660   1.979  1.1498 -0.8196 -0.4854
 1814SOL     OW 5652   3.286   3.420   0.741 -0.1977  0.3448  0.4667
 1814SOL    HW1 5653   3.196   3.389   0.732 -0.0765 -0.5655  2.0072
 1814SOL    HW2 5654   3.339   3.354   0.697 -0.3527  2.0857 -2.6286
 1815SOL     OW 5655   4.124   1.699   2.924  0.3532  0.1614  0.2209
 1815SOL    HW1 5656   4.132   1.657   3.010  3.4187  1.7779  0.8330
 1815SOL    HW2 5657   4.153   1.632   2.862 -0.7600 -0.6220  0.5128
 1816SOL     OW 5658   1.698   0.166   4.200  0.5705  0.1131 -0.2128
 1816SOL    HW1 5659   1.746   0.248   4.213  0.8213  0.2075 -1.6015
 1816SOL    HW2 5660   1.608   0.193   4.183 -0.2122 -0.0791  2.8901
 1817SOL     OW 5661   1.761   0.451   0.049  0.1704  0.1552 -0.0005
 1817SOL    HW1 5662   1.695   0.446  -0.020 -0.2090  0.8024  0.3139
 1817SOL    HW2 5663   1.844   0.453   0.001  0.1205 -2.5066 -0.3657
 1818SOL     OW 5664   2.001   2.332   4.005  0.4287 -0.1518  0.3606
 1818SOL    HW1 5665   1.986   2.418   4.044  2.1625  0.7309 -0.7698
 1818SOL    HW2 5666   2.070   2.347   3.939  1.5639 -2.5867  0.8613
 1819SOL     OW 5667   2.353   1.295   2.827 -0.5281 -0.3640 -0.1180
 1819SOL    HW1 5668   2.344   1.220   2.769  0.8336  0.4265 -1.4235
 1819SOL    HW2 5669   2.352   1.371   2.768 -1.5902  0.6433  1.1328
 1820SOL     OW 5670   1.743   0.395   2.332  0.4635  0.3784  0.2957
 1820SOL    HW1 5671   1.754   0.487   2.356 -0.2536  0.6777 -0.4700
 1820SOL    HW2 5672   1.698   0.356   2.407  0.8685  0.6228  0.6697
 1821SOL     OW 5673   0.246   2.135   0.457  1.0735 -0.5069  0.0058
 1821SOL    HW1 5674   0.212   2.200   0.519 -3.3552 -1.0985 -1.4511
 1821SOL    HW2 5675   0.258   2.184   0.376 -2.7065 -1.3037 -1.2246
 1822SOL     OW 5676   2.003   0.704   2.571 -0.2474 -0.1724 -0.1483
 1822SOL    HW1 5677   2.038   0.754   2.644 -0.6278  0.0339 -0.1058
 1822SOL    HW2 5678   2.033   0.614   2.588  0.1973 -0.0147 -0.0784
 1823SOL     OW 5679   1.825   0.986   1.142  0.6561  0.1264  0.6398
 1823SOL    HW1 5680   1.829   1.049   1.069  2.5002 -0.1023  0.4958
 1823SOL    HW2 5681   1.788   0.907   1.104 -0.6406  0.7400  0.5567
 1824SOL     OW 5682   2.682   3.897   2.732 -0.0350 -0.3527  0.1680
 1824SOL    HW1 5683   2.638   3.838   2.670 -1.7140 -0.7110  1.6148
 1824SOL    HW2 5684   2.725   3.838   2.794  1.5066  0.0050 -0.5151
 1825SOL     OW 5685   4.126   1.448   4.056  0.1935  0.2397  0.0521
 1825SOL    HW1 5686   4.214   1.477   4.079 -0.6534  2.0193  1.2963
 1825SOL    HW2 5687   4.103   1.384   4.124  0.7169 -0.7122 -0.6342
 1826SOL     OW 5688   3.816   4.207   3.675 -0.3084 -0.5567  0.6000
 1826SOL    HW1 5689   3.825   4.243   3.763 -0.0373 -1.1513  0.8218
 1826SOL    HW2 5690   3.737   4.249   3.640 -0.5734 -0.5184  1.2274
 1827SOL     OW 5691   1.455   3.236   2.853 -0.2504 -0.0408  0.4284
 1827SOL    HW1 5692   1.506   3.293   2.796 -0.2595  0.1994  0.6596
 1827SOL    HW2 5693   1.506   3.230   2.934 -0.4708  0.0082  0.5721
 1828SOL     OW 5694   3.800   3.182   2.755 -0.3571  0.6064  0.6051
 1828SOL    HW1 5695   3.738   3.236   2.707  1.0951  1.7664 -0.0569
 1828SOL    HW2 5696   3.859   3.245   2.797  0.6833 -0.4457  0.7808
 1829SOL     OW 5697   4.034   2.007   3.830  0.2981  0.1735 -0.3896
 1829SOL    HW1 5698   3.990   2.023   3.747  2.4192 -1.1893 -1.8874
 1829SOL    HW2 5699   4.021   1.913   3.846  1.9203 -0.1072 -0.5069
 1830SOL     OW 5700   1.816   0.832   3.980  0.4796 -0.2339  0.1551
 1830SOL    HW1 5701   1.780   0.893   4.044  2.7493  0.6548  0.7100
 1830SOL    HW2 5702   1.798   0.872   3.895 -0.2295 -0.0647  0.3829
 1831SOL     OW 5703   2.412   3.210   3.766 -0.2370 -0.3866 -0.3332
 1831SOL    HW1 5704   2.491   3.229   3.715  0.6746 -1.0186  0.8008
 1831SOL    HW2 5705   2.361   3.291   3.761  0.5660  0.1065 -0.9073
 1832SOL     OW 5706   1.557   2.779   4.093  0.3694 -0.6859  0.1118
 1832SOL    HW1 5707   1.542   2.842   4.164  1.2823 -0.8802  0.4952
 1832SOL    HW2 5708   1.491   2.710   4.107  2.1571 -2.0838  2.4091
 1833SOL     OW 5709   0.924   3.914   0.076 -0.1152  0.3742  0.0635
 1833SOL    HW1 5710   0.997   3.867   0.116 -0.6061 -1.2683 -0.8615
 1833SOL    HW2 5711   0.850   3.854   0.085 -1.1632  1.6567  0.2268
 1834SOL     OW 5712   0.590   0.908   0.440 -0.1112  0.1758 -0.1171
 1834SOL    HW1 5713   0.617   0.990   0.481  1.1195  1.0305 -2.4769
 1834SOL    HW2 5714   0.600   0.842   0.509  0.0292  1.8067  1.4755
 1835SOL     OW 5715   4.096   1.303   2.145  0.1391  0.3448  0.2207
 1835SOL    HW1 5716   4.087   1.240   2.217  0.2601 -1.2803 -1.1268
 1835SOL    HW2 5717   4.184   1.288   2.111  0.0444  1.0258 -0.3344
 1836SOL     OW 5718   1.080   2.666   3.429 -0.7941 -0.5533  0.7523
 1836SOL    HW1 5719   1.047   2.624   3.508 -0.2746 -1.0346  0.7174
 1836SOL    HW2 5720   1.097   2.594   3.368  0.2550 -0.3221  0.7438
 1837SOL     OW 5721   0.112   2.633   0.895 -0.5721  0.0419  0.2126
 1837SOL    HW1 5722   0.120   2.537   0.891 -0.3854  0.0803 -0.5441
 1837SOL    HW2 5723   0.105   2.660   0.803  0.2691  0.8260  0.3649
 1838SOL     OW 5724   0.239   1.982   1.541  0.3622 -0.2238  1.2566
 1838SOL    HW1 5725   0.321   1.979   1.589  2.2521  1.2396 -1.6067
 1838SOL    HW2 5726   0.239   2.067   1.498 -0.8320 -1.5859 -1.7626
 1839SOL     OW 5727   0.132   3.657   3.248 -0.3899 -0.6405 -0.2239
 1839SOL    HW1 5728   0.149   3.648   3.154  0.4165  1.8887 -0.3816
 1839SOL    HW2 5729   0.041   3.684   3.254 -0.4281 -0.7566 -0.2803
 1840SOL     OW 5730   1.643   4.272   3.572 -0.0724 -0.5062  0.0067
 1840SOL    HW1 5731   1.555   4.310   3.577 -0.1551 -0.5983 -0.6627
 1840SOL    HW2 5732   1.701   4.345   3.593 -0.3254 -0.5669  0.9452
 1841SOL     OW 5733   0.191   3.853   1.118 -0.4195  0.3388  0.5355
 1841SOL    HW1 5734   0.212   3.835   1.026  3.2078  1.0612  1.0698
 1841SOL    HW2 5735   0.165   3.769   1.154  0.7906 -0.5492 -0.5761
 1842SOL     OW 5736   3.105   0.735   3.834 -0.2723  0.5614 -0.3148
 1842SOL    HW1 5737   3.044   0.799   3.798 -1.3297 -0.8947 -1.2364
 1842SOL    HW2 5738   3.096   0.658   3.778  1.7752 -0.0344  0.0776
 1843SOL     OW 5739   3.162   0.502   1.234 -0.0492 -0.3506  0.1974
 1843SOL    HW1 5740   3.249   0.464   1.250 -0.5401 -1.3152  0.6528
 1843SOL    HW2 5741   3.168   0.540   1.146  0.5607 -1.2037 -0.1394
 1844SOL     OW 5742   3.469   0.629   4.183 -0.0645 -0.7200  0.2155
 1844SOL    HW1 5743   3.561   0.604   4.190 -0.0787 -0.6332  0.7822
 1844SOL    HW2 5744   3.429   0.594   4.263  0.2602  2.6226  2.0100
 1845SOL     OW 5745   3.944   2.586   1.227  0.5642  0.0694 -0.2873
 1845SOL    HW1 5746   3.851   2.593   1.206  0.2984 -0.6906  0.5952
 1845SOL    HW2 5747   3.976   2.676   1.225 -0.4421  0.4610  0.5251
 1846SOL     OW 5748   1.646   4.057   2.830  0.2150  0.0683  0.1898
 1846SOL    HW1 5749   1.609   4.033   2.745  0.2479  0.1633  0.1488
 1846SOL    HW2 5750   1.594   4.009   2.894  0.6660 -0.6054  0.0702
 1847SOL     OW 5751   0.020   3.623   0.119  0.3822 -0.0957  0.3788
 1847SOL    HW1 5752  -0.063   3.584   0.091  1.4187 -1.2147 -1.3241
 1847SOL    HW2 5753   0.015   3.713   0.088 -0.5196  0.0831  1.0118
 1848SOL     OW 5754   3.211   3.745   2.764 -0.5598  0.9211  0.3384
 1848SOL    HW1 5755   3.137   3.803   2.780 -0.1173  1.6725 -0.2004
 1848SOL    HW2 5756   3.240   3.768   2.675 -0.3332 -0.0929  0.1380
 1849SOL     OW 5757   3.708   0.301   2.169  0.0786  0.9806 -0.3415
 1849SOL    HW1 5758   3.662   0.308   2.252 -1.6797 -1.0370 -1.0620
 1849SOL    HW2 5759   3.759   0.220   2.176  2.6828  2.5234 -0.0278
 1850SOL     OW 5760   2.220   0.129   2.913  0.2759 -0.1902 -0.0175
 1850SOL    HW1 5761   2.142   0.096   2.957  0.6906  0.6535  1.4220
 1850SOL    HW2 5762   2.261   0.052   2.874 -2.3292 -0.4182 -2.6706
 1851SOL     OW 5763   4.205   0.335   0.928  0.6584 -0.0562  0.1499
 1851SOL    HW1 5764   4.186   0.259   0.873 -0.5032  0.2325  0.1160
 1851SOL    HW2 5765   4.161   0.315   1.011 -0.4171  0.9460 -0.1534
 1852SOL     OW 5766   1.425   1.777   2.713  0.0384 -0.0094 -0.2799
 1852SOL    HW1 5767   1.347   1.722   2.710  0.5236 -0.7694  0.5904
 1852SOL    HW2 5768   1.402   1.850   2.770 -0.1733 -0.0174 -0.3559
 1853SOL     OW 5769   0.994   0.986   1.069  0.2707 -0.1625 -0.4048
 1853SOL    HW1 5770   1.043   0.919   1.116  1.9065  1.5452  0.4768
 1853SOL    HW2 5771   1.020   1.069   1.111  0.3970  1.2948 -3.1278
 1854SOL     OW 5772   2.371   0.073   1.369 -0.3899 -0.0201  0.1378
 1854SOL    HW1 5773   2.358  -0.019   1.391  0.3667 -0.2685 -0.4070
 1854SOL    HW2 5774   2.296   0.118   1.408 -0.8274 -0.8773  0.3084
 1855SOL     OW 5775   1.282   2.918   0.027 -0.0435  0.8264  0.2561
 1855SOL    HW1 5776   1.247   2.839  -0.015 -0.8422  0.4217  1.6456
 1855SOL    HW2 5777   1.376   2.901   0.036 -0.2294 -0.0234  0.6514
 1856SOL     OW 5778   2.119   1.486   3.831  0.2861 -0.6806 -0.4439
 1856SOL    HW1 5779   2.109   1.512   3.739  0.4030 -1.6990 -0.7583
 1856SOL    HW2 5780   2.058   1.413   3.842  0.5499 -0.8129  0.1910
 1857SOL     OW 5781   1.322   1.287   3.999  0.5334  0.3097  0.2546
 1857SOL    HW1 5782   1.254   1.268   3.934  0.5075 -1.1235  0.6672
 1857SOL    HW2 5783   1.404   1.261   3.956  0.6518  0.5554  0.3323
 1858SOL     OW 5784   3.552   2.056   0.531 -0.4831 -0.6300 -0.4491
 1858SOL    HW1 5785   3.491   2.120   0.495 -1.3692 -0.5728  1.0636
 1858SOL    HW2 5786   3.639   2.092   0.511 -0.9136 -0.6790 -2.5572
 1859SOL     OW 5787   1.900   2.428   0.529  0.0744  0.4351  0.5924
 1859SOL    HW1 5788   1.869   2.444   0.618  0.1009 -0.2191  0.7230
 1859SOL    HW2 5789   1.834   2.470   0.473 -0.6832 -0.3167  0.8860
 1860SOL     OW 5790   2.167   2.961   2.865  0.2240 -0.0627  0.3068
 1860SOL    HW1 5791   2.102   2.892   2.862  0.0214 -0.1516  3.2306
 1860SOL    HW2 5792   2.132   3.031   2.810 -0.6111 -1.4321 -0.9484
 1861SOL     OW 5793   1.131   2.257   3.437  0.3877  0.6849 -0.3859
 1861SOL    HW1 5794   1.175   2.299   3.511  1.1716  1.1760 -1.1153
 1861SOL    HW2 5795   1.128   2.325   3.369 -1.0099  0.4846 -0.5524
 1862SOL     OW 5796   4.096   0.560   0.299  0.1402  0.2517 -0.5180
 1862SOL    HW1 5797   4.081   0.541   0.391  2.6023 -2.6750 -0.5946
 1862SOL    HW2 5798   4.139   0.646   0.299  0.2132  0.2354  1.0299
 1863SOL     OW 5799   2.314   3.290   0.235  0.3690  0.4457  0.2419
 1863SOL    HW1 5800   2.394   3.305   0.186 -0.1552 -1.7760 -1.4379
 1863SOL    HW2 5801   2.339   3.232   0.307  0.0988 -1.3592 -1.0666
 1864SOL     OW 5802   1.608   2.876   3.531  0.5969 -0.4619 -1.0416
 1864SOL    HW1 5803   1.534   2.817   3.516  1.1771 -1.3351 -0.5433
 1864SOL    HW2 5804   1.629   2.865   3.624  1.5492 -0.4441 -1.2481
 1865SOL     OW 5805   1.230   3.287   1.058  0.2353 -0.1713 -0.2051
 1865SOL    HW1 5806   1.270   3.272   1.143 -1.4814  0.4608  0.7571
 1865SOL    HW2 5807   1.298   3.333   1.008  0.2472  2.2576  1.8726
 1866SOL     OW 5808   3.192   3.886   1.877 -0.3061  0.0281  0.0240
 1866SOL    HW1 5809   3.220   3.857   1.790 -1.4854 -1.3881  0.0680
 1866SOL    HW2 5810   3.230   3.973   1.887 -0.2047  0.2546 -1.9446
 1867SOL     OW 5811   0.336   2.871   2.529  0.2910 -0.2723 -0.3662
 1867SOL    HW1 5812   0.337   2.929   2.605  1.3655 -0.2725 -0.3703
 1867SOL    HW2 5813   0.243   2.854   2.513  0.0305  0.2635  0.5333
 1868SOL     OW 5814   0.701   2.571   2.693 -0.4362 -0.3430  0.0786
 1868SOL    HW1 5815   0.620   2.588   2.742 -0.3743 -0.1871  0.1281
 1868SOL    HW2 5816   0.766   2.549   2.760 -0.3462 -0.1091  0.0689
 1869SOL     OW 5817   3.316   3.829   2.506  0.0070 -0.3325  0.0150
 1869SOL    HW1 5818   3.269   3.866   2.431 -0.8201 -0.6727  0.3599
 1869SOL    HW2 5819   3.371   3.760   2.467  0.5476  0.3332 -0.4416
 1870SOL     OW 5820   0.598   3.971   3.989  0.1616  0.4811 -0.0591
 1870SOL    HW1 5821   0.544   3.931   4.057  0.8630  1.1235  0.9030
 1870SOL    HW2 5822   0.687   3.966   4.023  0.4241  1.6279 -0.5259
 1871SOL     OW 5823   0.229   0.227   1.459  0.1682 -0.0164 -0.1015
 1871SOL    HW1 5824   0.147   0.253   1.417  0.5410 -0.0165 -0.8441
 1871SOL    HW2 5825   0.295   0.236   1.391  0.6841 -0.6412  0.3018
 1872SOL     OW 5826   2.320   1.465   3.436  0.3008  0.0639 -0.1573
 1872SOL    HW1 5827   2.330   1.540   3.378  2.0897 -0.7108 -0.9002
 1872SOL    HW2 5828   2.393   1.471   3.497 -0.4066 -0.2534  0.7530
 1873SOL     OW 5829   3.582   2.331   2.056  0.1394  0.0777 -0.0267
 1873SOL    HW1 5830   3.563   2.366   2.143 -0.7344 -1.3704  0.4154
 1873SOL    HW2 5831   3.665   2.371   2.031 -0.3293  1.6611  0.8196
 1874SOL     OW 5832   3.927   2.540   0.633  0.0938  0.0501  0.2694
 1874SOL    HW1 5833   3.916   2.583   0.717 -1.2601  0.6684 -0.2039
 1874SOL    HW2 5834   3.925   2.611   0.569 -0.2870 -0.5332 -0.3809
 1875SOL     OW 5835   1.224   1.537   3.180  0.0625  0.2368  0.6772
 1875SOL    HW1 5836   1.266   1.527   3.094  0.0067  0.2367  0.6500
 1875SOL    HW2 5837   1.134   1.561   3.160 -0.2971 -1.0107  0.7095
 1876SOL     OW 5838   3.349   3.287   2.045 -0.6122 -0.3415  0.2317
 1876SOL    HW1 5839   3.386   3.367   2.083 -0.1959  0.1750 -1.2094
 1876SOL    HW2 5840   3.417   3.220   2.060  0.9815  0.5633 -2.2441
 1877SOL     OW 5841   1.354   4.238   1.295  0.6932  0.0880 -0.1139
 1877SOL    HW1 5842   1.375   4.150   1.263 -0.6873  0.3515 -1.9397
 1877SOL    HW2 5843   1.315   4.223   1.381 -1.3321 -1.3409 -1.1984
 1878SOL     OW 5844   0.097   3.961   1.568 -0.2268  0.0780  0.0672
 1878SOL    HW1 5845   0.082   3.874   1.530 -2.2987 -0.4710  1.9335
 1878SOL    HW2 5846   0.014   4.007   1.555  1.6091  2.9168 -3.3370
 1879SOL     OW 5847   0.092   2.243   2.146  0.1580  0.2363 -0.2720
 1879SOL    HW1 5848   0.074   2.295   2.068 -1.1513  0.0867 -0.0999
 1879SOL    HW2 5849   0.043   2.288   2.216 -3.0868 -2.4456 -0.5631
 1880SOL     OW 5850   2.893   1.913   3.191 -0.2921 -0.0104  0.8124
 1880SOL    HW1 5851   2.827   1.882   3.130 -1.4173 -0.3177  2.1383
 1880SOL    HW2 5852   2.954   1.963   3.137 -1.6188  0.3144 -0.4370
 1881SOL     OW 5853   3.535   3.481   2.178 -0.0204  0.4010 -0.3431
 1881SOL    HW1 5854   3.481   3.512   2.251 -1.1126 -0.4727 -0.7444
 1881SOL    HW2 5855   3.580   3.404   2.213 -1.7595 -0.9956 -0.9741
 1882SOL     OW 5856   0.057   2.405   0.618  0.0264 -0.1858  0.0676
 1882SOL    HW1 5857  -0.012   2.347   0.651  1.1996 -1.9098 -0.3720
 1882SOL    HW2 5858   0.037   2.415   0.524  0.7098 -1.2368 -0.2067
 1883SOL     OW 5859   0.576   2.510   3.764 -0.8064  0.1299  0.2996
 1883SOL    HW1 5860   0.618   2.424   3.773 -2.1601 -0.4173  1.7502
 1883SOL    HW2 5861   0.608   2.560   3.839 -2.7153 -0.3178  1.4714
 1884SOL     OW 5862   1.780   4.071   3.462  0.2167  0.4026  0.6358
 1884SOL    HW1 5863   1.811   4.030   3.542 -1.1085  0.4776  1.2185
 1884SOL    HW2 5864   1.746   4.156   3.489  0.4364  0.7458 -0.1249
 1885SOL     OW 5865   1.717   2.090   0.361 -0.6423  0.3199 -0.3002
 1885SOL    HW1 5866   1.731   2.142   0.281  0.1596 -0.3272 -0.6002
 1885SOL    HW2 5867   1.793   2.111   0.416 -0.8021  0.1848 -0.0286
 1886SOL     OW 5868   2.554   4.076   2.948  0.1244 -0.3224 -0.0922
 1886SOL    HW1 5869   2.565   4.024   3.027  2.0390  0.2855  0.0772
 1886SOL    HW2 5870   2.596   4.024   2.879 -1.0412 -0.5869 -0.6370
 1887SOL     OW 5871   3.450   1.358   2.949 -0.0626 -0.1647 -0.0858
 1887SOL    HW1 5872   3.475   1.408   2.871  2.1433 -1.1299 -0.0450
 1887SOL    HW2 5873   3.354   1.366   2.951  0.0313  2.5457 -1.0598
 1888SOL     OW 5874   3.918   1.889   3.203 -0.0715 -0.2601 -0.2402
 1888SOL    HW1 5875   3.953   1.839   3.129 -1.1111 -0.7786 -0.3936
 1888SOL    HW2 5876   3.974   1.864   3.276  2.1007  1.5871 -1.1529
 1889SOL     OW 5877   3.096   3.946   4.219  0.2593 -0.1415 -0.2064
 1889SOL    HW1 5878   3.131   4.015   4.163 -1.3350 -0.9998 -2.4104
 1889SOL    HW2 5879   3.027   3.988   4.269 -1.0577 -0.1644 -1.9155
 1890SOL     OW 5880   3.738   3.944   0.357  0.5805  0.0484  0.1856
 1890SOL    HW1 5881   3.656   3.924   0.312 -0.5365  0.6829  1.8747
 1890SOL    HW2 5882   3.764   4.030   0.323  0.3115  0.0507 -0.0120
 1891SOL     OW 5883   2.057   0.748   1.783 -0.2278  0.7283  0.2245
 1891SOL    HW1 5884   2.002   0.773   1.858 -0.0287  0.5518  0.4300
 1891SOL    HW2 5885   2.143   0.787   1.802  0.9151 -2.3124  1.9084
 1892SOL     OW 5886   2.813   2.305   3.903  0.8183  0.2871  0.2850
 1892SOL    HW1 5887   2.779   2.391   3.880 -0.3566 -0.1441  0.3857
 1892SOL    HW2 5888   2.791   2.249   3.828 -0.4015 -0.4309  1.1425
 1893SOL     OW 5889   0.311   1.025   1.223 -0.0974  0.1576 -0.5616
 1893SOL    HW1 5890   0.357   1.109   1.227 -0.5969  0.3932  1.7118
 1893SOL    HW2 5891   0.240   1.039   1.161 -0.0135  1.3241 -0.4112
 1894SOL     OW 5892   1.093   3.498   1.299  0.4708 -0.2570  0.1316
 1894SOL    HW1 5893   1.131   3.410   1.293  1.0674 -0.0127  0.2532
 1894SOL    HW2 5894   1.158   3.549   1.347 -0.2209  0.0622  0.7535
 1895SOL     OW 5895   0.966   3.334   0.448 -0.2260  0.0115  0.3063
 1895SOL    HW1 5896   0.876   3.338   0.416 -0.4356 -1.5652  0.6055
 1895SOL    HW2 5897   0.972   3.249   0.493  1.9777 -0.9066 -1.5079
 1896SOL     OW 5898   2.600   3.445   2.610 -0.0033 -0.3476 -0.7075
 1896SOL    HW1 5899   2.523   3.481   2.654  1.2708 -1.1367  2.3885
 1896SOL    HW2 5900   2.668   3.510   2.624  0.5309 -0.7679 -1.3010
 1897SOL     OW 5901   2.911   3.997   1.897  0.3733 -0.7582  0.6740
 1897SOL    HW1 5902   3.000   3.965   1.879  0.2633  0.0207 -1.5694
 1897SOL    HW2 5903   2.921   4.052   1.975  1.6216 -1.6107  1.1537
 1898SOL     OW 5904   0.012   3.536   2.135  0.3768  0.0812  0.0656
 1898SOL    HW1 5905   0.092   3.572   2.175  0.2447  0.7267 -0.2329
 1898SOL    HW2 5906  -0.059   3.576   2.185  0.2320 -0.6519  0.4650
 1899SOL     OW 5907   1.955   3.730   1.942  0.2815 -0.7056 -0.1896
 1899SOL    HW1 5908   2.008   3.720   2.022  0.1883 -0.7345 -0.1316
 1899SOL    HW2 5909   1.964   3.823   1.919  2.6470 -1.2397 -1.7687
 1900SOL     OW 5910   2.630   4.028   1.461  0.6534 -0.7153 -0.2076
 1900SOL    HW1 5911   2.661   4.101   1.408 -0.9678 -0.3418 -0.6816
 1900SOL    HW2 5912   2.641   4.059   1.551  0.8368 -0.2591 -0.3794
 1901SOL     OW 5913   4.139   3.859   2.781 -0.0443  0.0963  0.3737
 1901SOL    HW1 5914   4.197   3.856   2.857 -0.2048  0.4559  0.5156
 1901SOL    HW2 5915   4.157   3.944   2.741 -2.8817  1.8141  2.3645
 1902SOL     OW 5916   4.183   3.074   2.172 -0.1328  0.3444  0.3711
 1902SOL    HW1 5917   4.206   3.069   2.079  1.8444  1.5307  0.7324
 1902SOL    HW2 5918   4.142   3.160   2.182 -1.8230 -0.4203  0.3550
 1903SOL     OW 5919   3.914   0.199   0.320 -0.1124 -0.4959  0.0059
 1903SOL    HW1 5920   3.915   0.282   0.273 -2.0315  0.2131  1.0534
 1903SOL    HW2 5921   3.891   0.223   0.410  0.8132 -2.0303  0.6944
 1904SOL     OW 5922   3.014   1.758   2.061 -0.2809  0.2537  0.3763
 1904SOL    HW1 5923   2.996   1.671   2.096 -1.4073  0.4958  0.4650
 1904SOL    HW2 5924   3.039   1.743   1.970  1.4599 -0.2863  0.9228
 1905SOL     OW 5925   4.054   3.564   3.134 -0.5662  0.1770  0.1703
 1905SOL    HW1 5926   4.100   3.481   3.122  0.0534  0.3338  1.2719
 1905SOL    HW2 5927   3.981   3.561   3.072 -0.3193 -1.0162 -0.0784
 1906SOL     OW 5928   1.778   1.253   3.050 -0.1036 -0.1421  0.0562
 1906SOL    HW1 5929   1.714   1.194   3.090  0.0286  0.7940  1.7862
 1906SOL    HW2 5930   1.808   1.208   2.971 -1.4903 -1.4396  0.2401
 1907SOL     OW 5931   1.408   3.937   3.751 -0.1048 -0.1686 -0.0200
 1907SOL    HW1 5932   1.452   4.014   3.714  2.8649 -1.7669 -0.1589
 1907SOL    HW2 5933   1.384   3.884   3.675  1.3110 -1.0567  0.1057
 1908SOL     OW 5934   3.987   2.906   2.874 -0.1904 -0.2958 -0.5908
 1908SOL    HW1 5935   4.008   2.905   2.780 -0.9559 -1.2117 -0.7595
 1908SOL    HW2 5936   3.892   2.895   2.877 -0.3606  1.1758  0.2517
 1909SOL     OW 5937   2.837   0.965   2.994  0.1070  0.1734  0.4943
 1909SOL    HW1 5938   2.795   0.972   2.908 -1.9045  0.0487  1.4197
 1909SOL    HW2 5939   2.796   0.890   3.036  0.4059  0.7523  1.9047
 1910SOL     OW 5940   2.398   2.270   3.414  0.3996 -0.0826 -0.3067
 1910SOL    HW1 5941   2.414   2.343   3.473  0.5138 -0.4103  0.0709
 1910SOL    HW2 5942   2.486   2.240   3.388  0.3455  0.8116 -1.5838
 1911SOL     OW 5943   3.912   1.182   1.966 -0.4740 -0.0462  0.3286
 1911SOL    HW1 5944   3.898   1.096   2.007  0.9911 -1.6772 -2.2463
 1911SOL    HW2 5945   3.985   1.220   2.015 -1.9728  0.3823  2.3254
 1912SOL     OW 5946   2.128   3.153   0.126 -0.2446 -0.1216 -0.4682
 1912SOL    HW1 5947   2.161   3.064   0.134 -1.5344 -0.5897 -0.0782
 1912SOL    HW2 5948   2.197   3.208   0.163  0.0462 -1.0636  0.4408
 1913SOL     OW 5949   1.040   2.043   0.849  0.3028 -0.1840  0.5143
 1913SOL    HW1 5950   1.106   2.094   0.804 -0.3072  0.1571  0.0063
 1913SOL    HW2 5951   1.021   2.093   0.929 -0.5251  0.5579 -0.1344
 1914SOL     OW 5952   2.652   0.742   3.710 -0.6991  0.7444 -0.0741
 1914SOL    HW1 5953   2.590   0.708   3.644 -2.2436 -0.0386  1.6838
 1914SOL    HW2 5954   2.652   0.675   3.779 -0.5740  2.3808  1.5826
 1915SOL     OW 5955   2.356   4.149   0.844  0.0452 -0.1837  0.0423
 1915SOL    HW1 5956   2.320   4.180   0.927 -0.3629  0.3785 -0.3348
 1915SOL    HW2 5957   2.450   4.167   0.850 -0.1207  0.7309  0.0107
 1916SOL     OW 5958   3.382   1.074   3.744 -0.3330  0.7186  0.1955
 1916SOL    HW1 5959   3.385   1.093   3.838 -1.8404 -0.6655  0.5682
 1916SOL    HW2 5960   3.289   1.057   3.726 -0.2196  1.9008 -1.7581
 1917SOL     OW 5961   0.646   4.285   0.276  0.1914  0.1618 -0.1996
 1917SOL    HW1 5962   0.647   4.355   0.210 -3.1606  0.8499  0.2931
 1917SOL    HW2 5963   0.647   4.331   0.360  1.5225 -0.5877  0.2220
 1918SOL     OW 5964   1.718   1.874   2.819  0.5862  0.3453 -0.5660
 1918SOL    HW1 5965   1.687   1.893   2.908  0.3559  0.9638 -0.7728
 1918SOL    HW2 5966   1.800   1.827   2.832 -0.6859 -1.8659  0.0123
 1919SOL     OW 5967   3.878   3.564   0.281  0.2065  0.5657  0.3725
 1919SOL    HW1 5968   3.830   3.561   0.198  0.7210  0.7445  0.0679
 1919SOL    HW2 5969   3.943   3.494   0.274  0.1899  0.5189  0.6652
 1920SOL     OW 5970   2.145   1.069   2.930 -0.0511  0.0643  0.4909
 1920SOL    HW1 5971   2.176   1.144   2.981  1.4419 -0.4384  0.3729
 1920SOL    HW2 5972   2.201   0.997   2.959  0.1325 -0.4637 -1.0969
 1921SOL     OW 5973   1.269   3.615   1.775  0.4529 -0.3883 -0.4911
 1921SOL    HW1 5974   1.349   3.662   1.751  0.9034  0.5651  2.4558
 1921SOL    HW2 5975   1.299   3.541   1.827 -0.5499  0.4977  1.4336
 1922SOL     OW 5976   2.132   3.500   0.189  0.5098 -0.9661  0.1183
 1922SOL    HW1 5977   2.176   3.416   0.190 -0.2802 -1.3874  1.1720
 1922SOL    HW2 5978   2.203   3.565   0.188  1.1168 -1.6327 -0.6993
 1923SOL     OW 5979   2.640   1.316   1.507 -0.6233  0.0326 -0.1991
 1923SOL    HW1 5980   2.706   1.383   1.522 -0.9004  0.3320 -0.2858
 1923SOL    HW2 5981   2.560   1.353   1.545 -0.7316 -0.3395 -0.0634
 1924SOL     OW 5982   3.763   2.666   1.731  0.3690 -0.2020 -0.2309
 1924SOL    HW1 5983   3.792   2.744   1.778 -1.5824  0.8325 -0.6565
 1924SOL    HW2 5984   3.798   2.677   1.642  0.2585  0.0942 -0.2376
 1925SOL     OW 5985   0.585   1.392   3.531  0.3766  0.4707  0.5588
 1925SOL    HW1 5986   0.528   1.406   3.455  0.9210  0.7042  0.1845
 1925SOL    HW2 5987   0.526   1.400   3.606 -0.3064 -0.4499  0.1461
 1926SOL     OW 5988   3.560   1.004   1.136 -0.3002  0.5821 -0.1923
 1926SOL    HW1 5989   3.650   1.000   1.105 -0.6588 -0.7079 -1.1272
 1926SOL    HW2 5990   3.539   0.914   1.159 -1.6311  0.7205 -0.8095
 1927SOL     OW 5991   1.202   4.248   3.440 -0.7172  0.0960  0.1555
 1927SOL    HW1 5992   1.260   4.303   3.493  0.1395 -1.6937  1.1390
 1927SOL    HW2 5993   1.204   4.289   3.353  1.4710  0.4850  0.3348
 1928SOL     OW 5994   1.715   3.310   2.305  0.0795  0.3044  0.0657
 1928SOL    HW1 5995   1.692   3.379   2.243  0.6843 -0.1228 -0.6493
 1928SOL    HW2 5996   1.776   3.351   2.366 -1.2380  0.9917  0.9963
 1929SOL     OW 5997   0.717   2.291   2.235  0.2404  0.2050 -0.4762
 1929SOL    HW1 5998   0.804   2.281   2.196  0.4327  0.0864 -0.0321
 1929SOL    HW2 5999   0.702   2.208   2.281  0.1509  0.4502 -0.0528
 1930SOL     OW 6000   0.234   2.072   2.304 -0.0474  0.0727 -0.6471
 1930SOL    HW1 6001   0.301   2.139   2.293 -1.4240  1.5412 -0.5294
 1930SOL    HW2 6002   0.152   2.121   2.308 -0.9128 -1.3609  2.3048
 1931SOL     OW 6003   3.990   3.669   2.687  0.0668 -0.0726 -0.3588
 1931SOL    HW1 6004   3.993   3.693   2.594  0.3080  1.4376  0.0128
 1931SOL    HW2 6005   4.053   3.728   2.728 -0.1242 -0.6514  0.7901
 1932SOL     OW 6006   1.960   2.902   4.229 -0.0144 -0.0870 -0.3409
 1932SOL    HW1 6007   1.930   2.897   4.138 -2.0781 -0.7004  0.3105
 1932SOL    HW2 6008   1.892   2.952   4.274 -0.2648 -1.7510  1.2776
 1933SOL     OW 6009   2.530   0.254   1.523  0.1268  0.2176  0.2083
 1933SOL    HW1 6010   2.477   0.332   1.506 -1.5577 -0.0336  3.4878
 1933SOL    HW2 6011   2.504   0.192   1.455 -2.3354  0.8546  0.4622
 1934SOL     OW 6012   0.703   0.933   4.090  0.0978  0.3013  0.1430
 1934SOL    HW1 6013   0.715   0.851   4.043  0.2247  0.8686 -0.8509
 1934SOL    HW2 6014   0.677   0.907   4.179  0.8754 -0.8105  0.0597
 1935SOL     OW 6015   3.332   0.539   3.988 -0.2873  0.5036 -0.3551
 1935SOL    HW1 6016   3.248   0.585   3.978 -0.4486  0.1020 -0.8749
 1935SOL    HW2 6017   3.368   0.574   4.069  0.0652  2.2839 -1.2244
 1936SOL     OW 6018   3.493   2.169   2.497  0.5483  0.4839 -0.0454
 1936SOL    HW1 6019   3.421   2.219   2.458  0.3865 -0.5696 -1.1610
 1936SOL    HW2 6020   3.571   2.202   2.452  0.7696  1.4852  1.0230
 1937SOL     OW 6021   2.719   0.919   1.055  0.1572  0.1551  0.0853
 1937SOL    HW1 6022   2.805   0.878   1.042  0.0809 -0.0355  0.1806
 1937SOL    HW2 6023   2.656   0.855   1.022 -0.1602 -1.0594  2.7151
 1938SOL     OW 6024   0.038   1.348   0.210 -0.5238 -0.1869  0.0369
 1938SOL    HW1 6025   0.050   1.253   0.210  0.4395 -0.0742  0.0037
 1938SOL    HW2 6026  -0.021   1.365   0.283 -0.1067 -0.7511  0.5138
 1939SOL     OW 6027   1.230   4.181   1.531 -0.3095 -0.0792  0.1213
 1939SOL    HW1 6028   1.143   4.184   1.491 -0.4071  1.2013  0.3704
 1939SOL    HW2 6029   1.221   4.232   1.612  0.6105 -0.1182  0.2603
 1940SOL     OW 6030   3.619   1.027   0.060  0.0235  0.4277 -0.5564
 1940SOL    HW1 6031   3.656   1.086  -0.006 -0.5531  1.2640 -0.1542
 1940SOL    HW2 6032   3.660   0.943   0.042  0.8768  0.9467 -1.1461
 1941SOL     OW 6033   2.097   0.749   0.273  0.0282 -0.2452  0.1793
 1941SOL    HW1 6034   2.008   0.759   0.238  0.0837  3.1990  0.6182
 1941SOL    HW2 6035   2.086   0.699   0.354 -1.8700  1.5622  1.1481
 1942SOL     OW 6036   1.663   1.464   1.026  0.4844 -0.6352  0.0203
 1942SOL    HW1 6037   1.723   1.534   1.002 -0.1095  0.2377  1.0188
 1942SOL    HW2 6038   1.620   1.440   0.944 -0.2996  1.1193 -0.1211
 1943SOL     OW 6039   1.790   1.341   3.827  0.1243  0.6151  0.4074
 1943SOL    HW1 6040   1.786   1.437   3.822 -2.0771  0.5714  0.5508
 1943SOL    HW2 6041   1.730   1.311   3.760 -1.0252 -0.6056  1.9153
 1944SOL     OW 6042   2.563   0.066   2.925 -0.0218 -0.1031  0.0438
 1944SOL    HW1 6043   2.578  -0.028   2.913  0.2987  0.0574 -0.9316
 1944SOL    HW2 6044   2.514   0.073   3.007  0.9387 -1.0289  0.7094
 1945SOL     OW 6045   1.710   3.271   0.048  0.0105  0.0958  0.0795
 1945SOL    HW1 6046   1.664   3.311  -0.026 -1.3534 -1.1843  0.1894
 1945SOL    HW2 6047   1.640   3.232   0.101  0.8484  1.8435  2.6123
 1946SOL     OW 6048   2.564   2.986   3.832  0.3394  0.0564 -0.3158
 1946SOL    HW1 6049   2.510   3.064   3.825 -1.9777 -1.2145  2.0122
 1946SOL    HW2 6050   2.632   3.009   3.895 -0.3316  0.2102  0.3608
 1947SOL     OW 6051   3.448   3.007   3.313  0.0246  0.5493 -0.1215
 1947SOL    HW1 6052   3.413   3.096   3.307 -1.8235 -0.1418 -0.3503
 1947SOL    HW2 6053   3.431   2.968   3.228 -0.0240 -0.3080  0.2689
 1948SOL     OW 6054   0.361   3.867   0.614 -0.1261  0.0674  0.2226
 1948SOL    HW1 6055   0.361   3.921   0.535  1.6107  0.4796  0.4679
 1948SOL    HW2 6056   0.326   3.783   0.586 -2.6482  1.1824 -0.2284
 1949SOL     OW 6057   3.901   2.101   0.750 -0.1194  0.4062  0.5414
 1949SOL    HW1 6058   3.992   2.128   0.741  0.5761 -1.3948  1.5770
 1949SOL    HW2 6059   3.855   2.148   0.680  1.7175  0.8010 -0.4795
 1950SOL     OW 6060   2.890   2.055   2.811 -0.1911  0.1796  0.4998
 1950SOL    HW1 6061   2.937   2.071   2.729  0.8176 -0.3331  0.9597
 1950SOL    HW2 6062   2.813   2.112   2.806  0.3569  0.8663 -0.3730
 1951SOL     OW 6063   3.694   2.074   4.292 -0.2359 -0.4649  0.7075
 1951SOL    HW1 6064   3.652   2.018   4.357 -2.5816  0.5307  0.1598
 1951SOL    HW2 6065   3.649   2.054   4.210  0.4675  0.5763  0.0445
 1952SOL     OW 6066   4.011   0.411   3.348  0.0094 -0.7881 -0.9069
 1952SOL    HW1 6067   4.045   0.343   3.291  2.1991  1.1618 -2.0862
 1952SOL    HW2 6068   4.065   0.407   3.426  0.6541  0.0418 -1.2969
 1953SOL     OW 6069   0.307   1.279   2.580 -0.1401  0.3335 -0.1841
 1953SOL    HW1 6070   0.215   1.251   2.576 -0.0722 -0.0066  0.5470
 1953SOL    HW2 6071   0.305   1.361   2.629 -0.2406  1.2349 -1.6243
 1954SOL     OW 6072   0.603   3.041   4.181 -0.1261 -0.5316 -0.1562
 1954SOL    HW1 6073   0.533   3.084   4.131 -0.3391 -0.9710 -0.2490
 1954SOL    HW2 6074   0.684   3.064   4.134 -0.2223 -0.0996 -0.1052
 1955SOL     OW 6075   3.730   0.332   1.903 -0.1988  0.6335  0.0960
 1955SOL    HW1 6076   3.709   0.287   1.984  0.8395  0.8766  0.5161
 1955SOL    HW2 6077   3.649   0.329   1.852 -0.1310 -1.8727  0.0097
 1956SOL     OW 6078   0.742   3.563   3.270 -0.2517  0.1553 -0.3595
 1956SOL    HW1 6079   0.720   3.541   3.361  0.1519 -1.0291 -0.5238
 1956SOL    HW2 6080   0.701   3.648   3.255 -1.2819 -0.1511  0.5715
 1957SOL     OW 6081   2.803   3.780   2.979  0.2007  0.1256 -0.5732
 1957SOL    HW1 6082   2.794   3.727   3.058 -0.7823 -1.3992 -1.6395
 1957SOL    HW2 6083   2.892   3.814   2.983 -0.1273  0.8926  1.6298
 1958SOL     OW 6084   3.106   2.963   2.575 -0.1261  0.3462 -0.0648
 1958SOL    HW1 6085   3.065   2.902   2.513 -0.2913 -0.0058  0.3892
 1958SOL    HW2 6086   3.143   3.032   2.519  1.3843 -0.9237 -0.7225
 1959SOL     OW 6087   0.005   0.350   0.105 -0.2522 -0.2909  0.1598
 1959SOL    HW1 6088   0.045   0.325   0.021  0.5294 -1.3067  0.8041
 1959SOL    HW2 6089  -0.088   0.330   0.094 -0.3697  0.7521 -0.8805
 1960SOL     OW 6090   1.459   1.951   4.110  0.5644 -0.0802 -0.1023
 1960SOL    HW1 6091   1.367   1.964   4.133  0.3946 -0.8202 -0.3373
 1960SOL    HW2 6092   1.504   2.027   4.147 -0.4119  1.3681 -1.7130
 1961SOL     OW 6093   4.023   3.330   0.296 -0.0985 -0.3051  0.2813
 1961SOL    HW1 6094   4.098   3.338   0.237 -0.6629  0.0923 -0.3875
 1961SOL    HW2 6095   3.953   3.294   0.243 -0.4307 -0.5460  0.8714
 1962SOL     OW 6096   3.542   2.366   3.382  0.1645 -0.0310  0.8215
 1962SOL    HW1 6097   3.623   2.317   3.374  0.4780  0.5366  0.4393
 1962SOL    HW2 6098   3.473   2.299   3.385  0.3891 -0.5050 -1.9071
 1963SOL     OW 6099   3.521   0.828   3.909 -0.1214  0.2940 -0.2810
 1963SOL    HW1 6100   3.541   0.778   3.988  0.5404  0.5253 -0.2994
 1963SOL    HW2 6101   3.583   0.901   3.910 -0.2995  0.4594 -0.8656
 1964SOL     OW 6102   2.612   3.645   3.307  0.6035 -0.1983 -0.2129
 1964SOL    HW1 6103   2.607   3.550   3.301 -0.6991 -0.0789 -1.9477
 1964SOL    HW2 6104   2.578   3.666   3.394  1.2551 -1.3181  0.3270
 1965SOL     OW 6105   1.180   0.771   1.182  0.9781 -0.1352 -0.1847
 1965SOL    HW1 6106   1.155   0.683   1.207 -1.2872  0.7240  0.7969
 1965SOL    HW2 6107   1.207   0.813   1.264  1.3536  0.3030 -0.5221
 1966SOL     OW 6108   0.401   2.373   1.277  0.0260 -0.4312  0.0839
 1966SOL    HW1 6109   0.330   2.394   1.216 -0.1967  1.0350  0.7985
 1966SOL    HW2 6110   0.368   2.297   1.326 -1.3665  0.6117  0.8382
 1967SOL     OW 6111   1.423   3.925   3.061  0.0648  0.1716 -0.3167
 1967SOL    HW1 6112   1.393   3.993   3.122 -1.1373 -1.1653  0.6470
 1967SOL    HW2 6113   1.489   3.875   3.110  1.5804  1.1048 -1.3143
 1968SOL     OW 6114   3.842   2.260   3.954  0.0441  0.4229 -0.2319
 1968SOL    HW1 6115   3.841   2.205   4.032 -0.7523  0.6819 -0.0485
 1968SOL    HW2 6116   3.932   2.291   3.947  0.6943 -1.4286 -0.7154
 1969SOL     OW 6117   1.998   2.689   3.287 -0.0291 -0.5870 -0.0633
 1969SOL    HW1 6118   1.933   2.652   3.227 -0.6212  0.4704 -0.1033
 1969SOL    HW2 6119   1.947   2.743   3.347  0.9755  2.3762 -1.6637
 1970SOL     OW 6120   2.357   3.486   2.856  0.5145  0.7395  0.2188
 1970SOL    HW1 6121   2.449   3.476   2.880  0.5936 -0.5265 -0.5638
 1970SOL    HW2 6122   2.316   3.523   2.934  1.4640  0.1874  0.9960
 1971SOL     OW 6123   3.703   2.480   3.049 -0.5219 -0.3695 -0.3671
 1971SOL    HW1 6124   3.742   2.394   3.030  0.2002  0.1402 -1.2710
 1971SOL    HW2 6125   3.734   2.536   2.978 -2.1784  0.2889 -0.6083
 1972SOL     OW 6126   0.406   2.766   0.852  0.0301  0.5156 -0.1955
 1972SOL    HW1 6127   0.404   2.816   0.770  0.4376 -2.7192 -2.3511
 1972SOL    HW2 6128   0.315   2.741   0.867 -0.0111  0.9191  0.2799
 1973SOL     OW 6129   4.032   3.030   2.640 -0.6453 -0.5909  0.2318
 1973SOL    HW1 6130   4.046   2.991   2.553 -1.9140  1.5025 -0.9983
 1973SOL    HW2 6131   3.945   3.070   2.635 -0.1669  0.8177  1.9873
 1974SOL     OW 6132   1.142   0.917   3.514  0.3527 -0.4503 -0.1587
 1974SOL    HW1 6133   1.115   0.964   3.593 -0.5689 -0.8584 -0.2130
 1974SOL    HW2 6134   1.219   0.964   3.483 -0.1990  0.6703  0.1095
 1975SOL     OW 6135   2.897   4.194   2.070  0.6416 -0.4134  0.0506
 1975SOL    HW1 6136   2.893   4.214   2.163  0.7711  1.9224 -0.3730
 1975SOL    HW2 6137   2.932   4.274   2.030  1.1581 -1.5558 -1.9421
 1976SOL     OW 6138   3.340   2.832   2.291  0.0829 -0.0125  0.2534
 1976SOL    HW1 6139   3.417   2.822   2.236 -0.3406  0.1995 -0.3893
 1976SOL    HW2 6140   3.266   2.828   2.230 -0.4167 -0.2765  0.8632
 1977SOL     OW 6141   3.190   2.130   2.620 -0.3375  0.1211  0.0955
 1977SOL    HW1 6142   3.198   2.170   2.533 -0.8896  2.2397  0.9536
 1977SOL    HW2 6143   3.255   2.176   2.674 -0.0936 -1.0706  0.8548
 1978SOL     OW 6144   1.409   0.302   0.468 -0.3971  0.4274 -0.5974
 1978SOL    HW1 6145   1.421   0.273   0.377 -0.5796 -0.6183 -0.3094
 1978SOL    HW2 6146   1.498   0.310   0.502 -0.3290  0.7711 -0.8563
 1979SOL     OW 6147   3.223   2.238   1.395  0.0842 -0.6612 -0.2935
 1979SOL    HW1 6148   3.199   2.149   1.366  2.4834 -1.5018  0.0317
 1979SOL    HW2 6149   3.183   2.247   1.481 -0.2636 -1.3828 -0.3701
 1980SOL     OW 6150   0.128   3.364   2.451  0.5252 -0.0193 -0.2898
 1980SOL    HW1 6151   0.145   3.317   2.370  0.7715  0.3151 -0.4330
 1980SOL    HW2 6152   0.152   3.455   2.432  2.5450 -0.2759  0.7667
 1981SOL     OW 6153   3.900   0.913   2.033 -0.6786 -0.2987  0.2536
 1981SOL    HW1 6154   3.992   0.901   2.056 -0.8804  0.5342  1.6261
 1981SOL    HW2 6155   3.894   0.885   1.942  1.0407  0.1506 -0.0271
 1982SOL     OW 6156   0.749   3.794   2.508  0.1603 -0.5655 -0.5886
 1982SOL    HW1 6157   0.747   3.701   2.530 -0.1011 -0.6986 -1.1395
 1982SOL    HW2 6158   0.687   3.802   2.435 -2.9361  0.7132  1.9564
 1983SOL     OW 6159   2.420   4.265   0.498 -0.1121 -0.3649 -0.3134
 1983SOL    HW1 6160   2.360   4.300   0.432  1.9832  0.7246 -1.7478
 1983SOL    HW2 6161   2.460   4.343   0.537  0.9486 -1.0658  0.0379
 1984SOL     OW 6162   1.783   4.110   3.092  0.1192  0.2053  0.2317
 1984SOL    HW1 6163   1.731   4.081   3.018 -1.3127  0.1020  1.2419
 1984SOL    HW2 6164   1.733   4.182   3.130  1.0392  0.5393  0.8557
 1985SOL     OW 6165   0.352   3.324   1.146 -0.1318  0.0136  0.1023
 1985SOL    HW1 6166   0.286   3.257   1.128 -1.8757  1.5840  0.4866
 1985SOL    HW2 6167   0.406   3.286   1.216 -0.2510 -1.5031 -0.5924
 1986SOL     OW 6168   2.344   2.415   0.606  0.6587 -0.0587  0.0059
 1986SOL    HW1 6169   2.358   2.510   0.607 -2.0550  0.4097  0.4880
 1986SOL    HW2 6170   2.303   2.398   0.521  2.8252 -1.1568 -0.8991
 1987SOL     OW 6171   3.301   0.770   3.412  0.2396  0.6843 -1.0069
 1987SOL    HW1 6172   3.313   0.695   3.354  0.2037 -0.1947  0.0909
 1987SOL    HW2 6173   3.207   0.775   3.427  0.3814 -0.0997  0.2457
 1988SOL     OW 6174   2.812   4.014   1.078  0.1192  0.2618 -0.3553
 1988SOL    HW1 6175   2.893   4.030   1.029  0.4698 -1.4654 -0.3997
 1988SOL    HW2 6176   2.839   3.955   1.149 -1.2571 -1.0783 -0.9159
 1989SOL     OW 6177   3.869   0.450   1.299 -0.5906  0.2973  0.2123
 1989SOL    HW1 6178   3.828   0.505   1.365 -0.4458 -0.3282  0.8293
 1989SOL    HW2 6179   3.882   0.365   1.342 -0.4531 -0.1059 -0.5956
 1990SOL     OW 6180   2.515   1.545   3.032 -0.0348 -0.0655 -0.5835
 1990SOL    HW1 6181   2.489   1.591   2.952  1.0731  0.3947 -0.6855
 1990SOL    HW2 6182   2.440   1.488   3.051 -1.0220  1.0225 -1.0182
 1991SOL     OW 6183   0.732   0.443   3.782 -0.4372 -0.2449 -0.1912
 1991SOL    HW1 6184   0.657   0.389   3.807  0.5522 -1.4689  0.1885
 1991SOL    HW2 6185   0.694   0.513   3.728 -1.7277 -1.3553 -0.7704
 1992SOL     OW 6186   3.125   1.697   4.204 -0.1276  0.4742  0.0270
 1992SOL    HW1 6187   3.086   1.741   4.279  2.0785  1.1072  0.8811
 1992SOL    HW2 6188   3.121   1.604   4.225  0.3890  0.6440  0.9056
 1993SOL     OW 6189   3.506   1.298   2.521 -0.4194  0.3646  0.7607
 1993SOL    HW1 6190   3.429   1.353   2.527  0.1804  1.2021  0.8918
 1993SOL    HW2 6191   3.553   1.330   2.444 -0.4380 -0.4434  0.4058
 1994SOL     OW 6192   0.715   3.198   1.034 -0.1171  0.1127  0.6057
 1994SOL    HW1 6193   0.667   3.260   0.980  0.6182 -0.0288 -0.2354
 1994SOL    HW2 6194   0.671   3.114   1.020  0.7077 -0.1434 -0.6547
 1995SOL     OW 6195   2.926   0.393   0.711 -0.7358 -0.0352  0.0318
 1995SOL    HW1 6196   2.956   0.404   0.620 -1.1652 -0.5561 -0.1789
 1995SOL    HW2 6197   2.865   0.465   0.724 -2.3699 -1.2113 -0.8386
 1996SOL     OW 6198   3.130   0.520   0.156  0.2278 -0.5218  0.4193
 1996SOL    HW1 6199   3.095   0.445   0.109 -1.3516 -0.2732  1.1345
 1996SOL    HW2 6200   3.067   0.591   0.140  1.3313  0.4783  0.3036
 1997SOL     OW 6201   3.975   2.231   2.360  0.1925 -0.2105 -0.4244
 1997SOL    HW1 6202   3.993   2.143   2.326  0.6769 -0.9934  1.7005
 1997SOL    HW2 6203   3.976   2.220   2.455  0.3082  2.1176 -0.1150
 1998SOL     OW 6204   3.655   2.515   0.009 -0.0358 -0.3409 -0.1079
 1998SOL    HW1 6205   3.632   2.515   0.102  0.1540  1.2663 -0.0344
 1998SOL    HW2 6206   3.750   2.527   0.008 -0.0257 -0.4508 -0.5124
 1999SOL     OW 6207   4.023   3.207   0.542 -1.0039 -0.6156  0.4859
 1999SOL    HW1 6208   3.997   3.259   0.466  1.6653  0.2018  0.0237
 1999SOL    HW2 6209   4.069   3.269   0.598  1.1084 -2.1477  0.5586
 2000SOL     OW 6210   3.935   3.361   1.038  0.2484  0.0678  0.1239
 2000SOL    HW1 6211   4.018   3.387   0.998 -0.2619  0.6631 -0.5792
 2000SOL    HW2 6212   3.923   3.424   1.109  0.4504 -0.0852  0.2942
 2001SOL     OW 6213   3.598   2.551   2.261 -0.0269 -0.3584  0.0022
 2001SOL    HW1 6214   3.530   2.559   2.328  1.0904  0.9056  1.0356
 2001SOL    HW2 6215   3.665   2.496   2.301  0.5748  0.2658 -0.1286
 2002SOL     OW 6216   1.947   1.114   0.130 -0.1835  0.7108  0.6559
 2002SOL    HW1 6217   1.991   1.191   0.167  0.1450  1.2087 -0.7021
 2002SOL    HW2 6218   2.017   1.049   0.120 -0.0665  0.9214  0.0371
 2003SOL     OW 6219   0.046   0.030   1.787 -0.2545  0.5883  0.0669
 2003SOL    HW1 6220   0.045  -0.037   1.855 -1.5616 -1.3951 -1.7925
 2003SOL    HW2 6221   0.135   0.026   1.750  0.5898  1.9363  1.7706
 2004SOL     OW 6222   0.933   1.516   2.572 -0.0367  0.0690  0.0137
 2004SOL    HW1 6223   0.899   1.537   2.660 -0.2767 -1.3922  0.3050
 2004SOL    HW2 6224   0.945   1.421   2.574 -1.4168 -0.2067 -2.0148
 2005SOL     OW 6225   2.366   3.706   0.143 -0.4632 -0.0899 -0.0157
 2005SOL    HW1 6226   2.419   3.695   0.064 -0.9986 -0.4156 -0.3410
 2005SOL    HW2 6227   2.409   3.653   0.209 -1.3540 -1.8171 -0.7605
 2006SOL     OW 6228   4.065   4.118   4.129  0.7632  0.5888 -0.3162
 2006SOL    HW1 6229   4.022   4.086   4.208  1.5046  1.8848  0.6425
 2006SOL    HW2 6230   4.036   4.058   4.060  1.3723 -1.5569  1.2153
 2007SOL     OW 6231   4.121   3.577   2.310  0.0258  0.5325 -0.1088
 2007SOL    HW1 6232   4.053   3.643   2.327  0.8251  1.1927  0.5864
 2007SOL    HW2 6233   4.133   3.532   2.393  0.3487  0.3203 -0.2659
 2008SOL     OW 6234   0.587   3.782   0.807  0.3548 -0.2604 -0.7179
 2008SOL    HW1 6235   0.590   3.804   0.714  1.4622 -0.1583 -0.6761
 2008SOL    HW2 6236   0.666   3.729   0.821  0.3093 -0.0984  0.2064
 2009SOL     OW 6237   4.078   0.302   1.162  0.2397  0.2743 -0.0333
 2009SOL    HW1 6238   4.102   0.389   1.195  0.3605 -0.5477  2.1430
 2009SOL    HW2 6239   3.983   0.299   1.172  0.5059 -0.9640  2.9687
 2010SOL     OW 6240   3.936   2.935   3.627 -0.3525  0.1983 -0.2655
 2010SOL    HW1 6241   3.882   2.864   3.592 -1.1693  0.7262 -0.1166
 2010SOL    HW2 6242   4.023   2.920   3.590 -0.5933 -0.6994 -0.4775
 2011SOL     OW 6243   3.095   0.869   3.105  0.2027  0.0789  0.1840
 2011SOL    HW1 6244   3.176   0.840   3.061 -0.4295 -2.4578  0.5037
 2011SOL    HW2 6245   3.036   0.892   3.033  0.3515 -0.6412 -0.1830
 2012SOL     OW 6246   3.959   2.946   4.189 -0.1679 -0.1978 -0.2824
 2012SOL    HW1 6247   3.906   2.976   4.115  1.1112  1.4124 -0.5999
 2012SOL    HW2 6248   4.015   2.877   4.151 -1.0251 -0.9161 -0.2720
 2013SOL     OW 6249   1.086   3.833   4.119 -0.3904 -0.1352  0.3674
 2013SOL    HW1 6250   1.027   3.846   4.045 -0.0189  1.3490  0.3131
 2013SOL    HW2 6251   1.043   3.766   4.172 -0.9261 -0.8340 -0.9033
 2014SOL     OW 6252   3.183   1.386   1.532 -0.1477 -0.3814  0.2329
 2014SOL    HW1 6253   3.263   1.343   1.500 -0.0452  0.1544 -0.2499
 2014SOL    HW2 6254   3.196   1.393   1.627  0.4524 -0.1736  0.1429
 2015SOL     OW 6255   0.320   0.071   0.130 -0.0234  0.1235  0.0365
 2015SOL    HW1 6256   0.381   0.008   0.092 -3.5093 -1.7662 -3.1194
 2015SOL    HW2 6257   0.252   0.016   0.172 -2.1799  1.7640 -1.1066
 2016SOL     OW 6258   3.995   1.175   0.727  0.0826 -0.0175 -0.1552
 2016SOL    HW1 6259   3.992   1.270   0.730  1.2614  0.0089  0.9502
 2016SOL    HW2 6260   4.020   1.155   0.636  0.8455  0.7752 -0.1339
 2017SOL     OW 6261   4.292   2.094   0.720 -0.6364 -0.4087 -0.2570
 2017SOL    HW1 6262   4.253   2.170   0.763 -0.3735 -0.1894 -0.4061
 2017SOL    HW2 6263   4.385   2.114   0.715 -0.7451 -0.0971 -1.5846
 2018SOL     OW 6264   0.315   2.460   0.553  0.1434 -0.1519  0.0729
 2018SOL    HW1 6265   0.311   2.555   0.556 -0.0602 -0.0076 -2.4751
 2018SOL    HW2 6266   0.234   2.431   0.594 -0.4732  0.8395 -0.4080
 2019SOL     OW 6267   1.389   0.949   3.407 -0.1691  0.2801  0.1748
 2019SOL    HW1 6268   1.381   0.882   3.339  2.5950  0.6870 -0.6796
 2019SOL    HW2 6269   1.451   0.912   3.470 -0.1852  1.2007  0.7537
 2020SOL     OW 6270   3.686   2.746   0.266  0.3601  0.4428 -0.0309
 2020SOL    HW1 6271   3.687   2.838   0.290 -0.8812  0.1985  1.0614
 2020SOL    HW2 6272   3.612   2.709   0.314  0.8877 -1.1451 -0.3719
 2021SOL     OW 6273   2.275   3.690   2.487 -0.4408  0.1783  0.0948
 2021SOL    HW1 6274   2.190   3.694   2.531 -0.9859 -0.5018 -0.8453
 2021SOL    HW2 6275   2.329   3.754   2.533 -0.6864 -1.1363  2.3285
 2022SOL     OW 6276   1.775   0.479   1.155 -0.0001 -0.8283 -0.3188
 2022SOL    HW1 6277   1.699   0.429   1.184  0.5569 -1.1666  0.6063
 2022SOL    HW2 6278   1.838   0.411   1.129 -0.6565 -0.5579 -2.9199
 2023SOL     OW 6279   3.229   2.636   1.588 -0.0136  0.0907  0.0780
 2023SOL    HW1 6280   3.289   2.561   1.587 -0.0233  0.0898 -0.4788
 2023SOL    HW2 6281   3.225   2.662   1.680 -0.5937 -1.0674  0.4077
 2024SOL     OW 6282   3.324   1.657   1.080 -0.6971 -0.0137  0.0425
 2024SOL    HW1 6283   3.351   1.578   1.032 -2.0572  0.7642 -2.2051
 2024SOL    HW2 6284   3.343   1.637   1.172  3.4316 -1.0638 -0.8447
 2025SOL     OW 6285   1.283   0.095   1.759  0.2976 -0.4217 -0.0330
 2025SOL    HW1 6286   1.205   0.144   1.732  0.5799 -0.1141 -0.2932
 2025SOL    HW2 6287   1.327   0.152   1.822  0.5075 -0.4331 -0.1681
 2026SOL     OW 6288   2.344   2.865   3.630  0.0759  0.4087  0.0637
 2026SOL    HW1 6289   2.351   2.887   3.723 -0.3410  1.0970 -0.0628
 2026SOL    HW2 6290   2.338   2.770   3.628  2.8264  0.1204  0.5947
 2027SOL     OW 6291   3.276   3.274   3.459  0.1957 -0.1361  0.1872
 2027SOL    HW1 6292   3.367   3.295   3.439 -0.2672  0.2019 -1.7282
 2027SOL    HW2 6293   3.276   3.180   3.475  0.2730 -1.0381 -4.1589
 2028SOL     OW 6294   2.818   1.041   1.280 -0.0983 -0.0757 -0.1418
 2028SOL    HW1 6295   2.796   0.975   1.346  1.8042 -1.5409 -0.8729
 2028SOL    HW2 6296   2.766   1.019   1.204  1.5991 -1.7352 -0.8905
 2029SOL     OW 6297   1.874   1.116   2.831 -0.5788  0.0951 -0.6594
 2029SOL    HW1 6298   1.835   1.072   2.756  0.9931 -0.0142 -1.4451
 2029SOL    HW2 6299   1.969   1.106   2.819 -0.2633  0.9597  0.8024
 2030SOL     OW 6300   2.012   0.800   4.173  0.4986 -0.9057 -0.4409
 2030SOL    HW1 6301   1.928   0.781   4.131  0.7369  2.0285 -2.5845
 2030SOL    HW2 6302   2.072   0.815   4.100  2.1289 -0.0302  1.0147
 2031SOL     OW 6303   3.575   3.901   2.000 -0.2439 -0.0021  0.3611
 2031SOL    HW1 6304   3.524   3.875   2.077  0.8253 -0.7172  0.8555
 2031SOL    HW2 6305   3.515   3.953   1.948 -0.7344  1.3703  2.1768
 2032SOL     OW 6306   0.283   0.550   1.883  0.1756 -0.0520 -0.7481
 2032SOL    HW1 6307   0.277   0.456   1.903  1.0037 -0.4404 -2.2235
 2032SOL    HW2 6308   0.350   0.556   1.815 -0.1009  1.5904 -0.9084
 2033SOL     OW 6309   2.690   0.661   2.173  0.3867 -0.1078 -0.5329
 2033SOL    HW1 6310   2.679   0.743   2.123  0.8272  0.7204  0.6869
 2033SOL    HW2 6311   2.633   0.599   2.128 -0.9069  1.1937 -0.7813
 2034SOL     OW 6312   2.279   1.386   3.074  0.1906  0.0302  0.6944
 2034SOL    HW1 6313   2.294   1.358   2.984  1.2134  1.4139  0.3969
 2034SOL    HW2 6314   2.184   1.386   3.083  0.0516  0.2250 -0.5121
 2035SOL     OW 6315   3.452   1.129   4.038  0.2305 -0.7835  0.4768
 2035SOL    HW1 6316   3.467   1.046   4.083 -1.6806 -1.7123 -0.4870
 2035SOL    HW2 6317   3.418   1.187   4.107 -0.1786 -1.3895  0.8002
 2036SOL     OW 6318   0.416   2.939   3.235 -0.0411  0.2145 -0.2580
 2036SOL    HW1 6319   0.432   2.852   3.198  0.4526 -0.0967  0.6574
 2036SOL    HW2 6320   0.344   2.926   3.297  0.5321  0.3008  0.4339
 2037SOL     OW 6321   3.273   3.377   1.398  0.1255 -0.0911  0.5305
 2037SOL    HW1 6322   3.354   3.421   1.422 -0.3472  0.2884  1.4670
 2037SOL    HW2 6323   3.210   3.447   1.386  0.1214 -0.3277 -1.0123
 2038SOL     OW 6324   3.986   0.966   3.765 -0.0880  0.7299  0.4510
 2038SOL    HW1 6325   3.961   1.045   3.718  1.4646  1.1043  0.2019
 2038SOL    HW2 6326   4.074   0.945   3.733 -0.6571 -1.4108  0.1124
 2039SOL     OW 6327   2.881   1.728   0.384 -0.4057  0.2542  0.1490
 2039SOL    HW1 6328   2.847   1.646   0.419  0.1075  0.8633  2.2614
 2039SOL    HW2 6329   2.942   1.759   0.451 -0.1184  2.0543 -0.8689
 2040SOL     OW 6330   3.337   1.411   0.600  0.0074  0.6512 -0.2158
 2040SOL    HW1 6331   3.388   1.367   0.531  0.8310  0.5939  0.4112
 2040SOL    HW2 6332   3.248   1.379   0.588  0.1517  0.5890 -1.2152
 2041SOL     OW 6333   3.659   0.569   1.498 -0.1160 -0.1494  0.3145
 2041SOL    HW1 6334   3.707   0.543   1.577  0.2115 -2.0868 -0.4733
 2041SOL    HW2 6335   3.616   0.651   1.522  1.3549  0.2067  1.9432
 2042SOL     OW 6336   3.691   2.860   3.399 -0.1944  0.0273 -0.0975
 2042SOL    HW1 6337   3.716   2.768   3.394 -1.5720 -0.3232 -1.3146
 2042SOL    HW2 6338   3.596   2.859   3.383 -0.1025  1.7235 -0.8896
 2043SOL     OW 6339   1.885   3.396   2.789 -0.1822 -0.1151 -0.5022
 2043SOL    HW1 6340   1.817   3.389   2.856 -0.8472 -0.6895 -1.2255
 2043SOL    HW2 6341   1.930   3.312   2.792 -0.2568 -0.1666 -0.8231
 2044SOL     OW 6342   2.955   2.268   0.886 -0.2382 -0.3629 -0.0571
 2044SOL    HW1 6343   2.883   2.205   0.878  0.8419 -2.0236  2.1654
 2044SOL    HW2 6344   2.950   2.298   0.977  1.3853  0.0845 -0.0883
 2045SOL     OW 6345   1.222   0.900   3.798 -0.0489  0.2547  0.1026
 2045SOL    HW1 6346   1.137   0.932   3.828 -1.5358 -1.9204 -1.4546
 2045SOL    HW2 6347   1.202   0.817   3.754  2.7471  0.2241 -1.3395
 2046SOL     OW 6348   1.992   3.294   1.930 -0.0557 -0.6829 -0.8153
 2046SOL    HW1 6349   1.975   3.222   1.990 -1.8340 -0.8883 -1.5072
 2046SOL    HW2 6350   1.970   3.373   1.980  1.3185 -0.6324 -0.2550
 2047SOL     OW 6351   4.150   2.935   0.821  0.1338 -0.0974  0.4414
 2047SOL    HW1 6352   4.131   2.877   0.895  1.3325  0.4442  1.2065
 2047SOL    HW2 6353   4.145   2.878   0.744 -0.1004 -0.9006  1.0396
 2048SOL     OW 6354   4.082   2.425   3.922  0.1430 -0.9068  0.0087
 2048SOL    HW1 6355   4.055   2.469   3.842  1.6138  0.6370  0.3050
 2048SOL    HW2 6356   4.173   2.401   3.907  0.4185 -0.6535  1.1677
 2049SOL     OW 6357   1.229   1.566   3.680  0.1598 -0.6909  0.0307
 2049SOL    HW1 6358   1.227   1.614   3.597 -0.3061  0.6821  0.7988
 2049SOL    HW2 6359   1.321   1.558   3.702  0.2598 -0.5685 -0.3449
 2050SOL     OW 6360   3.117   1.466   0.064  0.1611  0.3566  0.1967
 2050SOL    HW1 6361   3.063   1.405   0.115 -1.2697  2.4053  1.2946
 2050SOL    HW2 6362   3.192   1.484   0.120 -0.5995  1.3595  0.9322
 2051SOL     OW 6363   1.249   0.514   2.950 -0.1856  0.1338 -0.1179
 2051SOL    HW1 6364   1.295   0.536   2.869 -0.7558 -1.7596 -1.0060
 2051SOL    HW2 6365   1.225   0.599   2.988 -0.8131  1.0632 -2.4392
 2052SOL     OW 6366   0.993   4.256   0.491 -0.2367  0.9396 -0.4435
 2052SOL    HW1 6367   1.048   4.326   0.528 -0.4125  0.7715  0.1366
 2052SOL    HW2 6368   1.022   4.249   0.400  2.0814 -0.4543  0.3128
 2053SOL     OW 6369   2.271   1.284   0.525  0.5933 -0.4457  0.0640
 2053SOL    HW1 6370   2.337   1.331   0.473  0.1701 -1.1482 -1.1542
 2053SOL    HW2 6371   2.317   1.257   0.604  1.0375  1.3776  0.4662
 2054SOL     OW 6372   2.751   0.516   1.898 -0.6114  0.5632 -0.7884
 2054SOL    HW1 6373   2.729   0.435   1.853  0.3136 -0.8258  1.0974
 2054SOL    HW2 6374   2.669   0.544   1.938 -0.3093 -1.4362  1.4433
 2055SOL     OW 6375   3.086   4.102   3.861 -0.2560 -0.3710 -0.5496
 2055SOL    HW1 6376   3.148   4.075   3.929 -0.2863 -2.2756 -1.1924
 2055SOL    HW2 6377   3.097   4.197   3.854  0.0209 -0.1797  1.8050
 2056SOL     OW 6378   2.154   1.147   0.815  0.1843  0.3997 -0.1652
 2056SOL    HW1 6379   2.068   1.189   0.805  0.1020  0.2638 -0.0357
 2056SOL    HW2 6380   2.157   1.083   0.744  0.4801  0.9062 -0.6140
 2057SOL     OW 6381   2.316   4.032   3.643 -0.0301  0.2015  0.1268
 2057SOL    HW1 6382   2.378   4.104   3.657 -1.4638  1.3277  0.9187
 2057SOL    HW2 6383   2.269   4.057   3.563 -0.0394 -0.2209  0.0007
 2058SOL     OW 6384   2.636   2.192   3.330  0.5438  0.2269  0.2133
 2058SOL    HW1 6385   2.691   2.115   3.317  1.1733  0.6068  0.5673
 2058SOL    HW2 6386   2.690   2.265   3.299 -0.0269  0.5367 -0.0791
 2059SOL     OW 6387   1.719   3.963   0.781  1.0717  0.2681  0.0207
 2059SOL    HW1 6388   1.678   4.025   0.843  2.0592 -0.0222  1.0026
 2059SOL    HW2 6389   1.793   3.927   0.830  0.7926 -1.3429 -0.7124
 2060SOL     OW 6390   3.500   3.650   3.754  0.3153 -0.7109  0.4399
 2060SOL    HW1 6391   3.449   3.576   3.787  0.9935 -0.7089  1.5308
 2060SOL    HW2 6392   3.591   3.623   3.763  0.5537 -0.0729  0.0406
 2061SOL     OW 6393   1.236   4.034   4.238 -0.0884 -0.3545  0.1547
 2061SOL    HW1 6394   1.299   3.984   4.290  1.4193  0.7012 -0.5977
 2061SOL    HW2 6395   1.190   3.968   4.186  0.8238 -1.0951  0.2679
 2062SOL     OW 6396   1.544   0.011   2.087  0.2840  0.4064 -0.3726
 2062SOL    HW1 6397   1.499   0.092   2.108 -0.7423  0.0569 -1.0908
 2062SOL    HW2 6398   1.497  -0.056   2.136  0.2783  0.0817 -0.8168
 2063SOL     OW 6399   0.632   2.050   0.518  0.1592 -0.2952 -0.4499
 2063SOL    HW1 6400   0.720   2.018   0.539  0.4461  0.9172  0.2892
 2063SOL    HW2 6401   0.621   2.128   0.573 -0.1230  1.4626 -2.8023
 2064SOL     OW 6402   2.520   1.383   0.059  0.5240  0.0681 -0.3161
 2064SOL    HW1 6403   2.455   1.371  -0.009  0.2336 -1.8576  0.2479
 2064SOL    HW2 6404   2.603   1.396   0.012 -0.2099  2.6800 -1.0356
 2065SOL     OW 6405   1.093   3.195   3.578 -0.5484 -0.1442 -0.2482
 2065SOL    HW1 6406   1.082   3.288   3.556 -0.5309  0.4359  2.0053
 2065SOL    HW2 6407   1.020   3.152   3.533 -1.8214  1.2676  0.3657
 2066SOL     OW 6408   0.544   2.974   0.942  0.0010 -0.6148  0.2230
 2066SOL    HW1 6409   0.519   2.890   0.905 -1.4144 -0.2352  0.2708
 2066SOL    HW2 6410   0.465   3.028   0.936  1.0508  0.9388 -0.4397
 2067SOL     OW 6411   2.156   3.728   2.112 -0.1782  0.1405  0.1316
 2067SOL    HW1 6412   2.219   3.687   2.171 -0.5001  0.8090  0.9689
 2067SOL    HW2 6413   2.135   3.812   2.154 -0.3233  0.6942 -1.0055
 2068SOL     OW 6414   2.924   3.552   0.106  0.3458 -0.2409 -0.0840
 2068SOL    HW1 6415   2.965   3.607   0.040  1.4435 -0.4462  0.3983
 2068SOL    HW2 6416   2.869   3.612   0.157 -0.1109  0.0069 -0.8625
 2069SOL     OW 6417   1.456   3.492   2.260  0.1189 -0.1697  0.6549
 2069SOL    HW1 6418   1.533   3.535   2.223  1.1703 -1.2317  1.4979
 2069SOL    HW2 6419   1.457   3.516   2.353 -0.3423 -0.5073  0.7505
 2070SOL     OW 6420   1.253   3.332   3.316 -0.5220  0.6625 -0.3558
 2070SOL    HW1 6421   1.276   3.239   3.318 -0.0803  0.7793  0.8401
 2070SOL    HW2 6422   1.268   3.359   3.225  1.1009 -0.0133 -0.3101
 2071SOL     OW 6423   2.215   3.579   1.837 -0.0524 -0.5132 -0.2688
 2071SOL    HW1 6424   2.272   3.541   1.904 -0.5141 -1.4791 -0.4120
 2071SOL    HW2 6425   2.157   3.637   1.886 -0.6919 -1.5678  0.2553
 2072SOL     OW 6426   3.450   3.511   0.191 -0.3532 -0.3829 -0.3990
 2072SOL    HW1 6427   3.482   3.558   0.267  1.4653 -2.6663  0.3819
 2072SOL    HW2 6428   3.355   3.510   0.200 -0.2467  0.6963  1.0067
 2073SOL     OW 6429   0.124   3.891   2.519  0.4750  0.1043  0.5448
 2073SOL    HW1 6430   0.179   3.943   2.460  0.3775  0.1250  0.4722
 2073SOL    HW2 6431   0.059   3.952   2.552  0.4764  0.0725  0.6065
 2074SOL     OW 6432   0.875   0.072   1.833 -0.3679 -0.0935 -0.1453
 2074SOL    HW1 6433   0.932   0.000   1.805 -1.4064 -0.3978 -1.5412
 2074SOL    HW2 6434   0.792   0.031   1.855 -0.8139  0.6079 -0.4642
 2075SOL     OW 6435   3.454   3.637   0.429  0.3119 -0.5993  0.3001
 2075SOL    HW1 6436   3.543   3.671   0.438  0.1965 -0.3968  0.6972
 2075SOL    HW2 6437   3.406   3.675   0.502 -0.5656  0.7734 -0.9319
 2076SOL     OW 6438   2.930   1.228   0.136 -0.2543 -0.4958  0.5616
 2076SOL    HW1 6439   2.868   1.162   0.106  1.0172 -1.2053 -0.6344
 2076SOL    HW2 6440   2.878   1.308   0.144 -1.1857 -0.8620 -1.2451
 2077SOL     OW 6441   3.072   1.036   2.661  0.3089 -0.2974 -0.1143
 2077SOL    HW1 6442   3.133   1.047   2.734 -0.2706 -1.2697  0.5452
 2077SOL    HW2 6443   3.094   0.951   2.624  1.2016  0.5836 -1.6871
 2078SOL     OW 6444   4.140   1.401   0.410  0.3707  0.3650  0.2783
 2078SOL    HW1 6445   4.194   1.453   0.469  1.0242  1.1343 -0.9628
 2078SOL    HW2 6446   4.054   1.441   0.414 -0.1472 -0.7884  2.1685
 2079SOL     OW 6447   0.653   2.586   1.236  0.2514 -0.1171  0.4636
 2079SOL    HW1 6448   0.726   2.641   1.265  1.7982 -1.3845 -0.8900
 2079SOL    HW2 6449   0.660   2.507   1.290 -1.1009  0.3580  1.3989
 2080SOL     OW 6450   3.687   2.053   2.108  0.4586  0.3671  0.0860
 2080SOL    HW1 6451   3.629   1.986   2.071  0.7658 -0.9264  1.8300
 2080SOL    HW2 6452   3.628   2.125   2.130  0.1543  0.8198 -2.0428
 2081SOL     OW 6453   3.749   3.459   2.395  0.3949  0.0813 -0.1828
 2081SOL    HW1 6454   3.810   3.532   2.403 -0.1120  0.3293  2.6526
 2081SOL    HW2 6455   3.802   3.382   2.418  0.3722 -0.1190 -0.8044
 2082SOL     OW 6456   0.346   2.716   1.421  0.3484 -0.1057  0.2989
 2082SOL    HW1 6457   0.266   2.691   1.374 -0.3040 -0.5876  1.6113
 2082SOL    HW2 6458   0.405   2.642   1.406  0.5725  0.2548 -0.6829
 2083SOL     OW 6459   3.557   3.639   1.800 -0.0074 -0.2553 -0.2285
 2083SOL    HW1 6460   3.567   3.701   1.873 -0.5566  2.0983 -2.0470
 2083SOL    HW2 6461   3.469   3.603   1.811  0.3511 -0.8566  0.8934
 2084SOL     OW 6462   1.618   2.899   1.349 -0.1425  0.1303 -0.3031
 2084SOL    HW1 6463   1.694   2.913   1.292 -0.0957 -0.7916 -0.4743
 2084SOL    HW2 6464   1.647   2.835   1.414 -0.2096  1.1247  0.7524
 2085SOL     OW 6465   2.704   3.375   2.334 -0.0501  0.4456  0.4097
 2085SOL    HW1 6466   2.779   3.330   2.374 -1.0932 -0.8911  0.9647
 2085SOL    HW2 6467   2.649   3.400   2.408 -0.3211  1.1264 -0.0099
 2086SOL     OW 6468   2.360   0.538   1.497  0.0229 -0.7465 -0.1237
 2086SOL    HW1 6469   2.307   0.551   1.419  0.5889  0.5681 -0.3030
 2086SOL    HW2 6470   2.297   0.533   1.569 -0.4015 -0.2596 -0.4608
 2087SOL     OW 6471   4.221   2.152   3.340 -0.2916  0.3288  0.0889
 2087SOL    HW1 6472   4.304   2.189   3.371 -0.7515  0.3343  1.4037
 2087SOL    HW2 6473   4.225   2.060   3.366  0.2673 -0.2650 -1.9457
 2088SOL     OW 6474   2.676   0.921   3.965  0.4892  0.5475 -0.1904
 2088SOL    HW1 6475   2.594   0.947   3.921  0.9940  0.2749 -1.3380
 2088SOL    HW2 6476   2.699   0.838   3.923 -0.6197 -1.4024  2.7395
 2089SOL     OW 6477   2.195   3.817   0.427  0.0384  0.5316 -0.1695
 2089SOL    HW1 6478   2.263   3.757   0.396 -0.4485 -0.9204  1.4287
 2089SOL    HW2 6479   2.242   3.896   0.454  0.6668  1.0272 -2.5004
 2090SOL     OW 6480   3.098   0.129   2.383 -1.1192 -0.7743  0.8407
 2090SOL    HW1 6481   3.047   0.048   2.372 -0.8895 -0.7086 -0.9648
 2090SOL    HW2 6482   3.035   0.192   2.417 -1.7716 -1.2187  0.4848
 2091SOL     OW 6483   4.230   1.057   3.345 -0.0479  0.3339  0.0928
 2091SOL    HW1 6484   4.167   1.129   3.340 -0.7944 -0.0497  2.4526
 2091SOL    HW2 6485   4.316   1.099   3.349 -0.5149  1.2527  2.3766
 2092SOL     OW 6486   4.035   1.737   0.373 -0.2044 -0.2013 -0.0683
 2092SOL    HW1 6487   4.038   1.832   0.387 -0.3945 -0.4943  2.4686
 2092SOL    HW2 6488   4.125   1.713   0.350  0.1795  0.4575  0.6704
 2093SOL     OW 6489   1.231   3.855   1.277 -0.0254  0.1014  0.1617
 2093SOL    HW1 6490   1.191   3.771   1.301  1.8049 -0.7533  0.4058
 2093SOL    HW2 6491   1.318   3.831   1.245  0.8812  1.9968  1.0977
 2094SOL     OW 6492   1.653   1.075   0.122 -0.3807 -0.1306  0.0806
 2094SOL    HW1 6493   1.675   1.141   0.188 -0.5469 -0.1723  0.1775
 2094SOL    HW2 6494   1.734   1.026   0.108 -0.6037 -0.7821  0.9948
 2095SOL     OW 6495   0.993   2.898   1.129  0.2843  0.2091 -0.5518
 2095SOL    HW1 6496   0.923   2.839   1.157  0.3184  1.1446  1.7530
 2095SOL    HW2 6497   0.975   2.915   1.037 -2.1375 -0.0809 -0.1880
 2096SOL     OW 6498   0.695   3.604   4.180 -0.1994 -1.0993 -0.7590
 2096SOL    HW1 6499   0.766   3.581   4.119 -0.3880 -1.4178 -0.8622
 2096SOL    HW2 6500   0.625   3.638   4.123  0.7663  1.5857 -0.4741
 2097SOL     OW 6501   2.248   3.086   1.996 -0.2827 -0.1997 -0.4828
 2097SOL    HW1 6502   2.268   3.126   1.912 -0.6894 -0.4993 -0.7284
 2097SOL    HW2 6503   2.153   3.090   2.003 -0.3286 -1.0188 -0.4713
 2098SOL     OW 6504   2.113   0.868   3.605 -0.0671 -0.4338  0.7107
 2098SOL    HW1 6505   2.116   0.913   3.690  1.2845 -0.2022  0.5644
 2098SOL    HW2 6506   2.046   0.802   3.616 -0.5857  0.2117  1.6540
 2099SOL     OW 6507   0.071   1.309   1.311 -0.0517 -0.0415  1.1347
 2099SOL    HW1 6508   0.124   1.388   1.302 -1.4460  1.0672  2.1462
 2099SOL    HW2 6509  -0.011   1.339   1.351 -0.3663 -2.1029  2.2250
 2100SOL     OW 6510   0.214   3.277   2.220  0.3896 -0.1879 -0.3829
 2100SOL    HW1 6511   0.300   3.246   2.192 -0.3385 -1.0058 -1.8218
 2100SOL    HW2 6512   0.171   3.304   2.139 -1.3912 -1.5379  0.0750
 2101SOL     OW 6513   3.754   1.760   2.670 -0.2678  0.2644  0.3587
 2101SOL    HW1 6514   3.695   1.691   2.700 -1.0116  1.1203  0.9397
 2101SOL    HW2 6515   3.700   1.814   2.612  0.0434  0.8520  0.6048
 2102SOL     OW 6516   2.438   3.546   0.344  0.4900  0.0777 -0.1945
 2102SOL    HW1 6517   2.375   3.515   0.410  1.0763  1.2121  0.9409
 2102SOL    HW2 6518   2.492   3.469   0.325  0.4437 -0.2184  0.8154
 2103SOL     OW 6519   3.989   3.954   3.925 -0.1621  0.1642 -0.4938
 2103SOL    HW1 6520   4.036   3.964   3.842 -0.6916  2.4479 -0.5828
 2103SOL    HW2 6521   3.897   3.969   3.903 -0.5703 -1.1247  0.2132
 2104SOL     OW 6522   3.162   0.240   1.944  0.5217  0.5488 -0.1952
 2104SOL    HW1 6523   3.119   0.293   1.877  0.6990  1.1063  0.1245
 2104SOL    HW2 6524   3.180   0.302   2.015  0.6223  0.0329  0.2335
 2105SOL     OW 6525   3.434   4.038   2.633  0.6519 -0.0879  0.0744
 2105SOL    HW1 6526   3.393   3.970   2.580  0.5700  0.9894 -1.2947
 2105SOL    HW2 6527   3.361   4.081   2.677  0.6544 -0.5123  0.4995
 2106SOL     OW 6528   2.767   1.384   3.585 -0.9016 -0.0904 -0.2659
 2106SOL    HW1 6529   2.755   1.303   3.536 -0.0979 -0.9438  0.8844
 2106SOL    HW2 6530   2.788   1.355   3.674 -0.3085  1.3725  0.1023
 2107SOL     OW 6531   3.242   2.257   2.387  0.6336 -0.0740  0.2809
 2107SOL    HW1 6532   3.261   2.208   2.307  0.9082 -0.3311  0.4998
 2107SOL    HW2 6533   3.250   2.349   2.362  0.2650 -0.1408 -0.0970
 2108SOL     OW 6534   1.181   3.146   4.151  0.4103  0.0561 -0.0152
 2108SOL    HW1 6535   1.174   3.096   4.232  1.5522  0.6246  0.4509
 2108SOL    HW2 6536   1.247   3.213   4.169  2.3875 -1.1616 -2.1129
 2109SOL     OW 6537   0.992   2.932   3.885  0.1576  0.6742 -0.3385
 2109SOL    HW1 6538   0.946   2.901   3.807 -1.0890  0.5566  0.4092
 2109SOL    HW2 6539   1.076   2.886   3.884  1.0619  2.2010 -2.6737
 2110SOL     OW 6540   3.817   0.627   2.741  0.0405  0.3326  0.3025
 2110SOL    HW1 6541   3.831   0.627   2.836 -0.9936  1.7067  0.4896
 2110SOL    HW2 6542   3.738   0.575   2.728 -0.3088  0.8572  0.2950
 2111SOL     OW 6543   1.747   0.611   3.372  0.3848 -0.6925 -0.3332
 2111SOL    HW1 6544   1.731   0.682   3.310 -0.5123 -0.4529  0.1501
 2111SOL    HW2 6545   1.818   0.643   3.428  0.5082 -0.4922 -0.6058
 2112SOL     OW 6546   1.149   2.105   2.921  0.1808  0.4472  0.0510
 2112SOL    HW1 6547   1.197   2.027   2.894 -0.1535  0.7357 -1.4844
 2112SOL    HW2 6548   1.163   2.167   2.849 -2.8290  0.3766 -0.7284
 2113SOL     OW 6549   1.000   3.586   3.147  0.1095  0.0057  0.2652
 2113SOL    HW1 6550   0.951   3.631   3.078 -1.8959 -1.8961  0.3515
 2113SOL    HW2 6551   0.934   3.566   3.214  0.9826 -2.4994  0.4724
 2114SOL     OW 6552   2.659   3.665   0.501  0.4136 -0.0174  0.0824
 2114SOL    HW1 6553   2.564   3.651   0.497  0.0259  2.0946  0.5359
 2114SOL    HW2 6554   2.669   3.748   0.549  2.4288  0.4001 -0.9441
 2115SOL     OW 6555   2.484   3.192   2.550  0.1387 -0.0047  0.0446
 2115SOL    HW1 6556   2.538   3.266   2.576 -1.3338  1.0243  0.2415
 2115SOL    HW2 6557   2.468   3.144   2.632  1.2600 -0.7112 -0.1129
 2116SOL     OW 6558   2.864   3.179   3.176  0.2316  0.6842  0.5684
 2116SOL    HW1 6559   2.837   3.114   3.242  1.0939  0.3573  0.6190
 2116SOL    HW2 6560   2.791   3.183   3.115 -0.4973  0.8310  1.4220
 2117SOL     OW 6561   2.646   3.263   3.656  0.0770  0.1071 -0.4008
 2117SOL    HW1 6562   2.679   3.343   3.615  0.0368 -0.0813 -0.8061
 2117SOL    HW2 6563   2.716   3.236   3.716  0.0108  0.5454 -0.1244
 2118SOL     OW 6564   2.828   0.996   2.076  0.3587 -0.2244  0.0869
 2118SOL    HW1 6565   2.746   1.044   2.061  1.7247  2.5264  0.6604
 2118SOL    HW2 6566   2.826   0.925   2.012 -2.5982 -0.4739  0.3121
 2119SOL     OW 6567   1.353   3.674   2.862 -0.0304  0.6411  0.4235
 2119SOL    HW1 6568   1.261   3.650   2.851  0.3496 -0.8340  0.2491
 2119SOL    HW2 6569   1.393   3.599   2.907  1.3072  0.7262 -0.5315
 2120SOL     OW 6570   3.249   2.106   2.158 -0.6819  0.2976  0.0871
 2120SOL    HW1 6571   3.180   2.116   2.093 -0.3785  0.4341 -0.2201
 2120SOL    HW2 6572   3.268   2.012   2.160 -2.4949 -0.0825  1.8795
 2121SOL     OW 6573   1.173   1.089   0.499  0.5716 -0.2098  0.1239
 2121SOL    HW1 6574   1.080   1.105   0.480  1.0382  0.0474 -2.1307
 2121SOL    HW2 6575   1.176   0.996   0.523 -0.1514 -0.4545 -0.6791
 2122SOL     OW 6576   3.358   2.816   4.038  0.0977  0.3077  0.0943
 2122SOL    HW1 6577   3.387   2.731   4.003  2.3626  0.5142  1.2435
 2122SOL    HW2 6578   3.425   2.838   4.103 -1.4080  2.1544  1.0946
 2123SOL     OW 6579   1.712   2.251   0.124 -0.1411 -0.3195  0.6504
 2123SOL    HW1 6580   1.804   2.275   0.115 -0.3404  0.0317 -0.6849
 2123SOL    HW2 6581   1.690   2.208   0.041 -1.1349 -0.5694  1.0284
 2124SOL     OW 6582   2.593   3.997   2.409  0.5229  0.0010  0.1623
 2124SOL    HW1 6583   2.523   3.973   2.347  0.5719 -0.7403  0.3795
 2124SOL    HW2 6584   2.662   3.933   2.392  1.1773  0.7574 -0.0796
 2125SOL     OW 6585   3.781   1.369   2.739  0.0616 -0.1500  0.0481
 2125SOL    HW1 6586   3.747   1.280   2.738  1.3998 -0.7140  1.1110
 2125SOL    HW2 6587   3.876   1.359   2.735  0.2414  1.2250  0.1744
 2126SOL     OW 6588   0.212   2.719   0.355 -0.2311  0.4483  0.7358
 2126SOL    HW1 6589   0.304   2.727   0.331 -0.7714  0.2048 -1.6638
 2126SOL    HW2 6590   0.174   2.662   0.288 -2.0921  0.3064  1.8146
 2127SOL     OW 6591   0.255   0.666   3.543  0.4321 -0.1586  0.4660
 2127SOL    HW1 6592   0.252   0.596   3.477 -1.4582  0.5900 -0.3295
 2127SOL    HW2 6593   0.164   0.677   3.570  0.6614  1.9924  0.5559
 2128SOL     OW 6594   1.016   1.735   2.428  0.1358  0.3966  0.1387
 2128SOL    HW1 6595   0.968   1.655   2.451 -0.0104  0.4399 -0.0191
 2128SOL    HW2 6596   1.066   1.711   2.349  0.1297  0.4472  0.1195
 2129SOL     OW 6597   2.819   4.144   3.841  0.4456 -0.0899  0.0597
 2129SOL    HW1 6598   2.793   4.140   3.933 -2.6313 -1.9679 -0.7540
 2129SOL    HW2 6599   2.912   4.120   3.842  0.1375 -1.5397  2.5412
 2130SOL     OW 6600   3.397   0.509   3.292  0.7297  0.8011  0.3570
 2130SOL    HW1 6601   3.398   0.501   3.196  2.5351  0.1809  0.4024
 2130SOL    HW2 6602   3.483   0.545   3.314  0.2272  1.2045  1.7438
 2131SOL     OW 6603   3.870   3.416   3.897 -0.7732 -0.1760 -0.4696
 2131SOL    HW1 6604   3.954   3.442   3.860  0.4971 -0.7581  1.7898
 2131SOL    HW2 6605   3.841   3.343   3.842  1.3212 -1.4122 -0.0529
 2132SOL     OW 6606   0.514   3.175   3.148  0.0827  0.2606  0.4100
 2132SOL    HW1 6607   0.602   3.137   3.156  0.1839 -0.9231 -3.7759
 2132SOL    HW2 6608   0.456   3.114   3.193  1.1352 -0.1023  1.3210
 2133SOL     OW 6609   0.828   1.926   3.882 -0.1764  0.3763 -0.4062
 2133SOL    HW1 6610   0.872   2.009   3.902 -2.9407  1.6666  0.8328
 2133SOL    HW2 6611   0.820   1.925   3.786  3.3066 -0.4632 -0.8276
 2134SOL     OW 6612   3.838   0.440   1.652  0.1246  0.4334  0.4417
 2134SOL    HW1 6613   3.930   0.453   1.674  0.1280  1.4183 -0.1296
 2134SOL    HW2 6614   3.795   0.424   1.737  0.3283  2.9444  1.0798
 2135SOL     OW 6615   2.722   3.003   4.048 -0.3936 -0.7891  0.6665
 2135SOL    HW1 6616   2.729   2.909   4.069 -1.5342 -0.5969  2.1025
 2135SOL    HW2 6617   2.728   3.046   4.134  0.6790  0.5145 -0.0284
 2136SOL     OW 6618   1.366   2.729   2.520 -0.4475 -0.2654 -0.4198
 2136SOL    HW1 6619   1.312   2.783   2.463 -1.8747  0.1510  1.2403
 2136SOL    HW2 6620   1.446   2.780   2.534 -0.5092  0.0578 -1.2359
 2137SOL     OW 6621   0.500   3.625   0.250  0.7467 -0.0133 -0.4545
 2137SOL    HW1 6622   0.447   3.681   0.306  0.4651  1.0682 -1.7699
 2137SOL    HW2 6623   0.445   3.548   0.233 -0.0499  0.6607 -1.0230
 2138SOL     OW 6624   3.257   3.330   2.722  0.3062  0.5295  0.0794
 2138SOL    HW1 6625   3.175   3.363   2.684  0.5645  2.3306  0.9975
 2138SOL    HW2 6626   3.277   3.391   2.792  1.1626 -1.3034  1.5090
 2139SOL     OW 6627   2.210   3.305   3.115  0.5009 -0.1256  0.6706
 2139SOL    HW1 6628   2.123   3.268   3.098 -0.3131  1.1401  1.8833
 2139SOL    HW2 6629   2.255   3.237   3.165 -0.4505 -0.0984  1.5960
 2140SOL     OW 6630   4.013   0.930   0.859 -0.0865  0.5517 -0.5932
 2140SOL    HW1 6631   3.993   0.992   0.789 -0.6853  2.3622  1.0755
 2140SOL    HW2 6632   4.089   0.967   0.903 -0.9503  0.5798  0.9500
 2141SOL     OW 6633   0.887   2.187   3.514  0.2459 -0.2190 -0.5008
 2141SOL    HW1 6634   0.976   2.212   3.490 -0.0133  3.2331  1.5077
 2141SOL    HW2 6635   0.838   2.192   3.433  1.6196 -1.0331 -1.4257
 2142SOL     OW 6636   2.235   0.155   1.779  0.4058  0.2805 -0.3203
 2142SOL    HW1 6637   2.184   0.226   1.742 -0.5614  0.9866  2.1707
 2142SOL    HW2 6638   2.195   0.075   1.743 -1.2585  0.8809  0.1277
 2143SOL     OW 6639   2.434   3.045   3.430  0.7813  0.6408 -0.4047
 2143SOL    HW1 6640   2.527   3.067   3.438  0.5991  0.6232  3.2115
 2143SOL    HW2 6641   2.427   2.958   3.468 -0.5935  0.1591 -1.6860
 2144SOL     OW 6642   0.936   3.093   1.332 -0.1065 -0.3705  0.1563
 2144SOL    HW1 6643   0.970   3.025   1.275 -1.8489 -2.2530  1.2493
 2144SOL    HW2 6644   0.871   3.139   1.279  1.8033  1.2689 -0.9346
 2145SOL     OW 6645   0.136   2.394   3.168  0.3339  0.0219  0.9155
 2145SOL    HW1 6646   0.162   2.346   3.090 -0.1597 -0.9821  1.3544
 2145SOL    HW2 6647   0.165   2.339   3.241  0.7565  0.9268  1.4493
 2146SOL     OW 6648   1.542   0.437   3.126  0.3147 -0.0251  0.0804
 2146SOL    HW1 6649   1.601   0.506   3.095 -0.7112  0.3347 -1.1417
 2146SOL    HW2 6650   1.462   0.482   3.150 -0.4849 -0.7956 -1.0253
 2147SOL     OW 6651   2.939   4.077   0.573 -0.1309  0.8502 -0.2480
 2147SOL    HW1 6652   2.917   4.170   0.568 -1.4129  0.7812  2.4154
 2147SOL    HW2 6653   2.971   4.065   0.662 -0.8782 -1.4288 -0.2346
 2148SOL     OW 6654   0.334   2.521   3.906 -0.0240 -0.0460  0.0919
 2148SOL    HW1 6655   0.347   2.450   3.843 -0.9916 -2.6926  2.6176
 2148SOL    HW2 6656   0.420   2.560   3.917  0.8527 -1.7488 -0.4124
 2149SOL     OW 6657   1.981   1.156   3.930  0.1895  0.3071  0.6468
 2149SOL    HW1 6658   1.957   1.164   4.022 -1.7940 -2.1786  0.4464
 2149SOL    HW2 6659   1.909   1.197   3.883 -0.0969 -0.6844  0.1861
 2150SOL     OW 6660   1.770   2.574   3.176  0.1072 -0.4796 -1.5517
 2150SOL    HW1 6661   1.744   2.666   3.181  0.3540 -0.4630 -0.3148
 2150SOL    HW2 6662   1.729   2.533   3.253  0.5940 -1.2482 -1.6923
 2151SOL     OW 6663   2.773   1.585   3.072 -0.3720 -0.7128  0.4569
 2151SOL    HW1 6664   2.677   1.586   3.071 -0.3909 -1.4916  0.9783
 2151SOL    HW2 6665   2.798   1.663   3.023 -1.2906  1.0652  2.6435
 2152SOL     OW 6666   3.030   3.178   4.270  0.1344  0.1256 -0.6142
 2152SOL    HW1 6667   2.963   3.207   4.207  1.7884  2.7193 -1.3541
 2152SOL    HW2 6668   3.090   3.125   4.217  0.2308  0.2818 -0.6632
 2153SOL     OW 6669   2.719   2.261   2.849 -0.2315  0.2088  0.3199
 2153SOL    HW1 6670   2.753   2.339   2.891 -0.2723  0.3044  0.1768
 2153SOL    HW2 6671   2.639   2.290   2.805  1.0697  0.7124 -1.9185
 2154SOL     OW 6672   2.459   4.278   3.658 -0.1950 -0.1937 -0.2561
 2154SOL    HW1 6673   2.494   4.328   3.585 -0.3285 -1.0629 -0.9289
 2154SOL    HW2 6674   2.527   4.282   3.725  0.1810  0.1120 -0.6530
 2155SOL     OW 6675   3.037   1.800   0.140  0.0723  0.2059 -0.1899
 2155SOL    HW1 6676   2.990   1.741   0.200  0.4033 -0.5825 -0.6968
 2155SOL    HW2 6677   2.979   1.876   0.132 -0.1817  0.1296  0.7803
 2156SOL     OW 6678   0.941   0.437   0.768 -0.3228 -0.7344  0.2849
 2156SOL    HW1 6679   1.022   0.482   0.792 -0.8621  0.2479  0.2902
 2156SOL    HW2 6680   0.943   0.433   0.673 -1.8389  2.3881  0.0050
 2157SOL     OW 6681   3.725   3.969   3.868  0.1294  0.3470  0.1873
 2157SOL    HW1 6682   3.737   3.950   3.775  0.0309  0.9829  0.0389
 2157SOL    HW2 6683   3.640   4.011   3.873 -0.0008  0.0435  0.6121
 2158SOL     OW 6684   1.527   2.677   2.184  0.5557 -0.4756  0.0692
 2158SOL    HW1 6685   1.549   2.756   2.234 -0.9837 -0.2289  0.4163
 2158SOL    HW2 6686   1.531   2.606   2.248 -0.7643 -0.2515  0.4478
 2159SOL     OW 6687   2.108   1.805   3.543 -0.2874 -0.1346 -0.0670
 2159SOL    HW1 6688   2.110   1.790   3.637 -0.3776 -1.0693 -0.2075
 2159SOL    HW2 6689   2.172   1.875   3.528  0.1842 -0.4187  0.6070
 2160SOL     OW 6690   3.552   3.153   2.921  0.5913  0.0532 -0.5318
 2160SOL    HW1 6691   3.577   3.180   2.832  0.4323  1.2204 -0.2369
 2160SOL    HW2 6692   3.462   3.183   2.931  0.4524 -0.4909 -0.1358
 2161SOL     OW 6693   3.650   2.563   1.161 -0.4248  0.7096  0.4257
 2161SOL    HW1 6694   3.643   2.606   1.075  1.3278 -0.6677 -0.4718
 2161SOL    HW2 6695   3.582   2.496   1.160 -0.3098  0.5959  0.0346
 2162SOL     OW 6696   3.110   0.482   3.399  0.1345 -0.3501  0.2184
 2162SOL    HW1 6697   3.048   0.409   3.397  0.1969 -0.3978 -0.8620
 2162SOL    HW2 6698   3.124   0.503   3.306  1.4109 -0.0699  0.4573
 2163SOL     OW 6699   0.603   0.071   1.901 -0.5517  0.3063  0.1013
 2163SOL    HW1 6700   0.607   0.156   1.858  0.5318 -1.0474 -2.7384
 2163SOL    HW2 6701   0.514   0.039   1.884 -1.0172  0.8837  1.3205
 2164SOL     OW 6702   3.503   3.761   1.120 -0.2095  0.0684  0.0901
 2164SOL    HW1 6703   3.512   3.765   1.025  0.4874 -0.1614  0.1405
 2164SOL    HW2 6704   3.585   3.724   1.151  0.8678  2.8929  0.9888
 2165SOL     OW 6705   2.227   0.061   1.022 -0.2096 -0.1162  0.2072
 2165SOL    HW1 6706   2.180   0.117   1.083 -2.3936 -1.1515 -0.4034
 2165SOL    HW2 6707   2.244   0.117   0.946  1.0595  0.7157  1.0655
 2166SOL     OW 6708   3.929   4.223   2.663 -0.3440 -0.0766  0.1512
 2166SOL    HW1 6709   3.863   4.154   2.661  1.0172 -1.5096  1.6616
 2166SOL    HW2 6710   3.904   4.279   2.736 -1.3427  0.9944 -0.9584
 2167SOL     OW 6711   1.567   1.307   3.383  0.3216  0.5112  0.1421
 2167SOL    HW1 6712   1.589   1.329   3.293 -0.7288  0.1888 -0.2120
 2167SOL    HW2 6713   1.515   1.381   3.414 -0.2763  0.1147  0.0985
 2168SOL     OW 6714   0.255   3.416   0.017 -0.4280  0.2213  0.5460
 2168SOL    HW1 6715   0.182   3.356   0.003  0.5435 -0.9743  0.5060
 2168SOL    HW2 6716   0.213   3.501   0.032 -1.7841 -0.0985 -1.1033
 2169SOL     OW 6717   3.138   2.875   0.114 -0.5985  0.2716 -0.2644
 2169SOL    HW1 6718   3.219   2.856   0.162  0.8625  1.8254 -1.9778
 2169SOL    HW2 6719   3.071   2.825   0.160  1.1165 -0.1703  1.9259
 2170SOL     OW 6720   4.040   3.289   3.459 -0.1119  0.4884 -0.2295
 2170SOL    HW1 6721   4.070   3.212   3.411  2.7104  0.4857  1.3316
 2170SOL    HW2 6722   4.004   3.253   3.541 -1.6355  0.7061 -0.7664
 2171SOL     OW 6723   0.631   3.467   1.936 -0.2732 -0.0586 -0.2048
 2171SOL    HW1 6724   0.688   3.444   1.863  0.2640  0.0660  0.1722
 2171SOL    HW2 6725   0.661   3.413   2.008 -0.5136  0.1438  0.0485
 2172SOL     OW 6726   3.339   2.511   2.342 -0.3587  0.1310 -0.0580
 2172SOL    HW1 6727   3.312   2.518   2.434  2.9276  1.3395  0.9498
 2172SOL    HW2 6728   3.302   2.588   2.300  0.4648  1.1210  0.9789
 2173SOL     OW 6729   1.782   2.475   0.777  0.1067 -0.2761  0.0369
 2173SOL    HW1 6730   1.775   2.543   0.845 -0.1106 -0.0595 -0.2031
 2173SOL    HW2 6731   1.692   2.454   0.755  0.1790 -0.3455 -0.1873
 2174SOL     OW 6732   0.736   2.121   3.017 -0.3110  0.1715  0.0440
 2174SOL    HW1 6733   0.703   2.168   2.941  0.6695 -2.2438 -2.0068
 2174SOL    HW2 6734   0.764   2.036   2.983  1.3647 -0.5541  2.8975
 2175SOL     OW 6735   1.655   3.362   0.559  0.4579  0.1341  0.0747
 2175SOL    HW1 6736   1.713   3.411   0.617 -1.8479  1.6628  1.2305
 2175SOL    HW2 6737   1.700   3.279   0.545  2.1960  0.6352  2.1166
 2176SOL     OW 6738   2.935   4.219   2.352  0.1264  0.4554  0.4423
 2176SOL    HW1 6739   2.923   4.133   2.393  0.3102  0.2529  0.0774
 2176SOL    HW2 6740   2.847   4.255   2.345  0.2364  1.3168  2.7547
 2177SOL     OW 6741   3.708   2.511   3.971 -0.0965 -0.3621  0.3828
 2177SOL    HW1 6742   3.617   2.526   3.945  0.7584  0.3420 -2.6707
 2177SOL    HW2 6743   3.722   2.418   3.956  0.1420 -0.1225 -1.1056
 2178SOL     OW 6744   0.730   2.716   4.234  0.2802  0.1459  0.3108
 2178SOL    HW1 6745   0.772   2.802   4.226 -1.0915  0.8086 -0.1141
 2178SOL    HW2 6746   0.777   2.673   4.305  1.6355  0.8526 -0.1015
 2179SOL     OW 6747   0.347   1.421   4.056  0.4732 -0.3895 -0.0513
 2179SOL    HW1 6748   0.282   1.365   4.099  0.3607 -0.2375 -0.0217
 2179SOL    HW2 6749   0.329   1.508   4.091 -0.3506 -0.0557 -1.2399
 2180SOL     OW 6750   1.420   1.271   2.345  0.9150 -0.0929  0.0957
 2180SOL    HW1 6751   1.435   1.190   2.394  0.5515 -0.7170 -0.8139
 2180SOL    HW2 6752   1.362   1.323   2.402  1.6115 -0.2092  0.9362
 2181SOL     OW 6753   2.282   1.811   0.175  0.1270  0.3173  0.5061
 2181SOL    HW1 6754   2.212   1.862   0.215  0.7121  1.8713 -0.3625
 2181SOL    HW2 6755   2.342   1.877   0.139  1.1732 -0.9880 -0.2217
 2182SOL     OW 6756   2.471   3.157   1.080 -0.2044  0.0328  0.4080
 2182SOL    HW1 6757   2.492   3.064   1.090 -0.5762 -0.0250  0.6508
 2182SOL    HW2 6758   2.430   3.162   0.993  1.9012  0.3443 -0.6424
 2183SOL     OW 6759   2.355   3.260   1.470 -0.2286  0.1462 -0.1554
 2183SOL    HW1 6760   2.446   3.245   1.496  0.0709  0.1871 -1.1223
 2183SOL    HW2 6761   2.320   3.172   1.455  0.4557  0.1639 -2.3099
 2184SOL     OW 6762   0.719   3.726   0.116  0.0723 -0.2371 -0.1590
 2184SOL    HW1 6763   0.727   3.689   0.028 -2.0920 -0.5258 -0.2813
 2184SOL    HW2 6764   0.640   3.686   0.152  0.2307  0.8146  1.4646
 2185SOL     OW 6765   0.430   0.335   2.259 -0.6147 -0.0038 -0.0006
 2185SOL    HW1 6766   0.370   0.406   2.281  0.9675  0.4969  3.2991
 2185SOL    HW2 6767   0.510   0.355   2.308  0.7782 -2.7455 -0.9706
 2186SOL     OW 6768   2.082   1.534   3.553 -0.5311  0.1003  0.1072
 2186SOL    HW1 6769   2.064   1.626   3.533  0.0340  0.4413  1.0718
 2186SOL    HW2 6770   2.166   1.516   3.510 -1.3372 -0.4124 -1.3101
 2187SOL     OW 6771   1.627   4.260   3.277  0.2213 -0.1717 -0.0211
 2187SOL    HW1 6772   1.643   4.243   3.369 -0.2249  0.3830  0.1612
 2187SOL    HW2 6773   1.625   4.356   3.270  0.5302 -0.2017 -0.6539
 2188SOL     OW 6774   2.405   4.184   3.993  0.5184  1.1762 -0.2079
 2188SOL    HW1 6775   2.418   4.265   3.943 -1.3791  1.8582  0.2845
 2188SOL    HW2 6776   2.310   4.178   4.003  0.6977 -0.4630  0.8582
 2189SOL     OW 6777   2.678   2.845   1.699 -0.4598 -0.0679  0.0038
 2189SOL    HW1 6778   2.707   2.841   1.790 -0.5191 -1.2631 -0.0185
 2189SOL    HW2 6779   2.582   2.843   1.704 -0.5287 -3.9911 -0.1511
 2190SOL     OW 6780   1.352   3.009   3.951  0.2734 -0.1187  0.9502
 2190SOL    HW1 6781   1.313   3.073   3.892  1.9174  1.7258  1.7809
 2190SOL    HW2 6782   1.320   3.033   4.038 -0.2360 -1.3529  1.1292
 2191SOL     OW 6783   0.086   2.978   2.333  0.2974  0.0686  0.5630
 2191SOL    HW1 6784   0.161   3.021   2.292  0.5040 -0.6787  0.1204
 2191SOL    HW2 6785   0.010   3.008   2.283  0.1359  1.6940  1.7046
 2192SOL     OW 6786   0.965   1.548   4.042  0.2153  0.0514  0.2471
 2192SOL    HW1 6787   0.973   1.488   3.968  0.4160 -1.0339  1.1269
 2192SOL    HW2 6788   1.038   1.609   4.032  1.3183 -1.1750  0.5035
 2193SOL     OW 6789   2.764   4.217   1.315  0.0119  0.3103  0.3211
 2193SOL    HW1 6790   2.796   4.297   1.273  0.4841  0.1138  0.2965
 2193SOL    HW2 6791   2.792   4.146   1.256  1.1294 -0.0097  1.2015
 2194SOL     OW 6792   0.596   0.622   0.740  0.7918  0.8352  0.1334
 2194SOL    HW1 6793   0.612   0.611   0.834  2.5894  0.3828 -0.1794
 2194SOL    HW2 6794   0.613   0.715   0.724  0.5222  0.9048  0.2575
 2195SOL     OW 6795   2.696   0.052   2.350 -0.4317 -0.0488 -0.1175
 2195SOL    HW1 6796   2.608   0.061   2.314 -1.3113  0.3568  2.0131
 2195SOL    HW2 6797   2.730   0.141   2.356  0.3640 -0.2374 -1.4002
 2196SOL     OW 6798   3.652   3.001   0.406 -0.8106 -0.3695 -0.3447
 2196SOL    HW1 6799   3.651   3.080   0.351 -1.2959 -0.6330 -0.7187
 2196SOL    HW2 6800   3.563   2.994   0.439  0.2224  1.9183  3.5815
 2197SOL     OW 6801   0.784   4.143   0.601 -0.2958 -0.1083 -0.1731
 2197SOL    HW1 6802   0.780   4.168   0.693 -0.5434  2.1157 -0.7271
 2197SOL    HW2 6803   0.860   4.190   0.567 -1.7673  1.3342 -1.6658
 2198SOL     OW 6804   3.026   1.173   4.017 -0.3203  0.1614 -0.0804
 2198SOL    HW1 6805   3.033   1.088   4.059 -0.4132  0.0335 -0.3189
 2198SOL    HW2 6806   3.066   1.234   4.079 -0.6436  0.0077  0.2784
 2199SOL     OW 6807   2.651   0.492   0.063  0.6445  0.2013 -0.3640
 2199SOL    HW1 6808   2.612   0.425   0.007 -0.3468  0.8150 -0.4487
 2199SOL    HW2 6809   2.711   0.539   0.004  0.4975  0.0975 -0.6009
 2200SOL     OW 6810   1.015   0.604   1.564  0.5554  0.2096  0.5903
 2200SOL    HW1 6811   0.981   0.591   1.476 -0.0233 -1.4233  1.0050
 2200SOL    HW2 6812   1.097   0.555   1.566  0.7185  0.4897  0.8642
 2201SOL     OW 6813   4.169   3.289   2.739  0.5059  0.7179  0.1402
 2201SOL    HW1 6814   4.084   3.331   2.753  1.0037  2.8635 -2.5644
 2201SOL    HW2 6815   4.147   3.197   2.721 -1.1455  1.0599  0.2082
 2202SOL     OW 6816   0.075   2.745   2.487  0.3897  0.1647 -0.4489
 2202SOL    HW1 6817   0.072   2.678   2.419  2.8139  0.6928 -1.1458
 2202SOL    HW2 6818   0.058   2.827   2.441 -1.6626  0.2006  0.2573
 2203SOL     OW 6819   2.404   3.602   2.251 -0.2530 -0.3085  0.2143
 2203SOL    HW1 6820   2.446   3.518   2.236  1.8056  0.7156 -0.1613
 2203SOL    HW2 6821   2.374   3.598   2.342  1.0593 -0.9824  0.6520
 2204SOL     OW 6822   3.053   2.913   3.315  0.1792 -0.1652 -0.4603
 2204SOL    HW1 6823   3.124   2.969   3.346 -0.9065  1.1709 -0.2513
 2204SOL    HW2 6824   3.007   2.886   3.394 -0.0832 -0.2633 -0.6428
 2205SOL     OW 6825   0.690   2.038   1.885  0.6275  0.3189 -0.0169
 2205SOL    HW1 6826   0.614   2.086   1.918 -1.2110 -0.0025 -3.3187
 2205SOL    HW2 6827   0.686   1.954   1.930 -1.0967  0.2519 -0.2233
 2206SOL     OW 6828   0.759   2.486   0.105 -0.4093  0.0937 -0.1491
 2206SOL    HW1 6829   0.805   2.405   0.127  1.4520  1.4872  1.4000
 2206SOL    HW2 6830   0.666   2.465   0.115 -0.3186 -2.8441 -3.4529
 2207SOL     OW 6831   1.247   0.159   3.238  0.1218  0.0060  0.4249
 2207SOL    HW1 6832   1.224   0.244   3.275  0.3919  1.4584 -2.5157
 2207SOL    HW2 6833   1.343   0.155   3.245  0.2930  0.8238 -1.0822
 2208SOL     OW 6834   2.582   2.325   4.142  0.4249 -0.1018 -0.1760
 2208SOL    HW1 6835   2.622   2.240   4.160  1.0928  0.5613  1.6775
 2208SOL    HW2 6836   2.491   2.314   4.167 -0.2977 -1.1180 -2.8431
 2209SOL     OW 6837   3.863   1.441   3.801  0.0337  0.1359  0.0046
 2209SOL    HW1 6838   3.806   1.371   3.832 -1.6891  0.5410 -1.9908
 2209SOL    HW2 6839   3.913   1.401   3.730  1.7995 -0.0176  1.2735
 2210SOL     OW 6840   2.515   0.990   0.174 -0.0041  0.0695 -0.2624
 2210SOL    HW1 6841   2.472   1.022   0.095  0.0618  1.6279  0.2980
 2210SOL    HW2 6842   2.455   1.011   0.245  1.2617  1.5419  0.4404
 2211SOL     OW 6843   3.679   2.172   2.753 -0.8077  0.3739  0.2939
 2211SOL    HW1 6844   3.714   2.260   2.758  0.4651 -0.1281  0.5432
 2211SOL    HW2 6845   3.743   2.117   2.799 -0.9153 -0.8585 -0.9543
 2212SOL     OW 6846   4.133   1.237   4.283  0.3678 -0.1312  0.1197
 2212SOL    HW1 6847   4.180   1.206   4.360  1.0488  0.9489  0.1567
 2212SOL    HW2 6848   4.152   1.173   4.215 -0.7777 -1.4625  0.9985
 2213SOL     OW 6849   2.361   0.183   4.253  0.1482 -0.1477 -0.3563
 2213SOL    HW1 6850   2.442   0.232   4.237 -0.2464  0.5010 -0.4389
 2213SOL    HW2 6851   2.386   0.114   4.314  0.8299 -0.1578 -0.6337
 2214SOL     OW 6852   3.817   2.689   1.464 -0.2627  0.1891  0.1273
 2214SOL    HW1 6853   3.874   2.643   1.402  0.0567 -1.7967  1.7623
 2214SOL    HW2 6854   3.730   2.653   1.448 -0.8211  1.9975 -1.2307
 2215SOL     OW 6855   3.485   2.329   1.251 -0.0233  0.3008  0.1494
 2215SOL    HW1 6856   3.451   2.255   1.201  2.0619  1.3572 -3.1812
 2215SOL    HW2 6857   3.419   2.345   1.318 -1.2428 -3.6010  0.1241
 2216SOL     OW 6858   0.566   2.412   1.536  0.0744  0.0237 -0.3054
 2216SOL    HW1 6859   0.487   2.431   1.588  0.3585 -0.3054  0.2563
 2216SOL    HW2 6860   0.532   2.379   1.453 -0.4013 -2.2458  0.7214
 2217SOL     OW 6861   2.745   2.132   3.684 -0.5016 -0.0679  0.4750
 2217SOL    HW1 6862   2.780   2.137   3.595  2.3551 -1.3008  1.3984
 2217SOL    HW2 6863   2.659   2.173   3.679 -1.1164 -1.4650 -3.1614
 2218SOL     OW 6864   4.211   3.242   1.525 -0.3262  0.3955  0.1078
 2218SOL    HW1 6865   4.166   3.240   1.609 -0.7811 -0.4528 -0.1489
 2218SOL    HW2 6866   4.143   3.264   1.462 -0.0305  0.8112 -0.0733
 2219SOL     OW 6867   4.085   1.703   2.035 -0.1072 -0.4691  0.1668
 2219SOL    HW1 6868   4.042   1.636   2.087  1.0411 -1.4959 -0.1450
 2219SOL    HW2 6869   4.071   1.676   1.944  0.8362 -0.6284  0.0537
 2220SOL     OW 6870   1.087   1.500   0.577 -0.1302  0.1548  0.5964
 2220SOL    HW1 6871   1.009   1.494   0.521  0.8971  0.9396 -0.9866
 2220SOL    HW2 6872   1.156   1.456   0.527  0.3270 -1.1752  2.2956
 2221SOL     OW 6873   2.129   0.998   1.414 -0.1691  0.1989 -0.0761
 2221SOL    HW1 6874   2.117   0.911   1.450  0.6410  0.3671  0.6090
 2221SOL    HW2 6875   2.063   1.052   1.458  0.1330  0.1848  0.3960
 2222SOL     OW 6876   0.118   0.033   1.085  0.1415  0.0537  0.1503
 2222SOL    HW1 6877   0.155   0.116   1.056 -2.1073  1.1810  0.2986
 2222SOL    HW2 6878   0.190  -0.030   1.075  0.7873  1.1536 -3.8962
 2223SOL     OW 6879   2.477   1.363   0.336 -0.3173  0.4862  0.7856
 2223SOL    HW1 6880   2.493   1.338   0.245 -1.9923  0.9419  0.3206
 2223SOL    HW2 6881   2.409   1.430   0.330  0.7259  1.7502  2.2771
 2224SOL     OW 6882   3.852   1.755   3.743  0.0627 -0.1201 -0.6219
 2224SOL    HW1 6883   3.849   1.671   3.697  0.2423  0.0697 -0.9782
 2224SOL    HW2 6884   3.835   1.821   3.676 -0.7716  0.0944 -0.2153
 2225SOL     OW 6885   1.778   2.946   1.114 -0.1282  0.6298 -0.5010
 2225SOL    HW1 6886   1.807   2.975   1.028 -0.2107 -0.5243 -0.9276
 2225SOL    HW2 6887   1.856   2.908   1.154 -0.1483  0.9449 -0.1544
 2226SOL     OW 6888   2.171   3.369   0.830  0.1105 -0.5549  0.4813
 2226SOL    HW1 6889   2.239   3.431   0.855 -2.2804  2.2902  0.5231
 2226SOL    HW2 6890   2.149   3.323   0.911 -0.4569  1.1316  1.3379
 2227SOL     OW 6891   4.160   0.558   1.220  0.1773 -0.3016 -0.1052
 2227SOL    HW1 6892   4.159   0.631   1.282  1.3489 -0.1542 -0.2294
 2227SOL    HW2 6893   4.112   0.591   1.144  0.8051  0.4101 -0.2133
 2228SOL     OW 6894   0.531   4.235   2.916  0.0939 -0.1457 -0.0088
 2228SOL    HW1 6895   0.487   4.317   2.937 -2.3632 -1.7539  1.5359
 2228SOL    HW2 6896   0.542   4.191   3.000  2.4330 -0.9667 -0.6639
 2229SOL     OW 6897   1.464   1.846   2.436  0.1542  0.8291  0.5515
 2229SOL    HW1 6898   1.390   1.874   2.383 -0.0601 -1.3113 -0.3835
 2229SOL    HW2 6899   1.424   1.796   2.508  0.6687 -0.7920 -0.2508
 2230SOL     OW 6900   1.063   0.021   0.953 -0.1866 -0.3681  0.9168
 2230SOL    HW1 6901   1.110   0.019   1.036  2.3003  3.7013 -0.1056
 2230SOL    HW2 6902   1.128  -0.006   0.888 -0.9508  0.0928 -0.0650
 2231SOL     OW 6903   3.242   2.870   0.459  0.4960  0.0124 -0.4231
 2231SOL    HW1 6904   3.272   2.933   0.393 -3.1342  1.5105 -0.8837
 2231SOL    HW2 6905   3.212   2.925   0.532 -1.1574 -1.2312 -0.1064
 2232SOL     OW 6906   1.636   3.897   1.458  0.4451  0.1516 -0.3174
 2232SOL    HW1 6907   1.690   3.883   1.535 -0.1337 -1.4347 -0.1828
 2232SOL    HW2 6908   1.546   3.891   1.490  0.0860  3.1395 -0.4633
 2233SOL     OW 6909   2.700   1.017   1.516  0.0966  0.5316 -0.1156
 2233SOL    HW1 6910   2.760   1.002   1.589 -1.0951 -0.0355  0.7882
 2233SOL    HW2 6911   2.706   1.112   1.499  3.4817  0.1227 -2.1189
 2234SOL     OW 6912   3.440   3.184   0.686 -0.4470 -0.4991 -0.0641
 2234SOL    HW1 6913   3.489   3.243   0.628 -0.6245  1.4804  1.6795
 2234SOL    HW2 6914   3.503   3.117   0.712  0.7991  0.8670  0.5633
 2235SOL     OW 6915   1.444   0.360   1.236 -0.1907  0.0743 -0.2851
 2235SOL    HW1 6916   1.430   0.274   1.195 -1.6875  0.0545  0.1923
 2235SOL    HW2 6917   1.486   0.340   1.319  0.3314 -0.1096 -0.5850
 2236SOL     OW 6918   0.628   1.606   1.775  0.4065 -0.0893  0.0469
 2236SOL    HW1 6919   0.669   1.522   1.753  2.6963  1.2074 -1.0008
 2236SOL    HW2 6920   0.685   1.671   1.735  0.0384  2.0939  2.8374
 2237SOL     OW 6921   2.501   3.666   1.757 -0.3045  0.3907 -0.6738
 2237SOL    HW1 6922   2.546   3.733   1.809 -0.6214 -0.3345  0.5790
 2237SOL    HW2 6923   2.476   3.600   1.821 -0.6922 -0.5504 -1.7761
 2238SOL     OW 6924   1.513   2.594   3.768  0.0609 -0.6659  1.1480
 2238SOL    HW1 6925   1.602   2.568   3.744  0.3827 -0.8953  2.5174
 2238SOL    HW2 6926   1.517   2.689   3.778  0.0091 -0.6105  0.6737
 2239SOL     OW 6927   4.228   1.039   3.651 -0.3462 -0.5585  0.0036
 2239SOL    HW1 6928   4.310   1.069   3.612 -0.2621  0.2866  0.7962
 2239SOL    HW2 6929   4.210   1.102   3.720 -2.8645  0.6948 -1.6280
 2240SOL     OW 6930   4.256   2.691   1.984  0.2159  0.1575  0.3712
 2240SOL    HW1 6931   4.296   2.609   2.013 -0.7730 -0.3864  0.2450
 2240SOL    HW2 6932   4.330   2.746   1.957  0.7890 -1.3158 -1.1581
 2241SOL     OW 6933   0.709   1.166   3.931 -0.6187  0.6704 -0.0698
 2241SOL    HW1 6934   0.764   1.231   3.976  1.9173  0.7470 -2.9887
 2241SOL    HW2 6935   0.700   1.095   3.995  2.4874  0.8927  0.7837
 2242SOL     OW 6936   1.991   0.165   3.922  0.4392  0.0708  0.2863
 2242SOL    HW1 6937   2.070   0.217   3.914 -0.4942  1.9267  2.1607
 2242SOL    HW2 6938   1.995   0.128   4.010 -0.8121  0.3139  0.4671
 2243SOL     OW 6939   1.068   2.628   2.837  0.3080 -0.3729 -0.0790
 2243SOL    HW1 6940   1.133   2.695   2.857  0.7367 -0.6015 -0.6677
 2243SOL    HW2 6941   1.038   2.649   2.748  1.8765 -2.0670 -1.0662
 2244SOL     OW 6942   2.572   3.379   0.176 -0.4287  0.6191  0.2588
 2244SOL    HW1 6943   2.606   3.428   0.101  1.1700 -0.3038  0.3320
 2244SOL    HW2 6944   2.646   3.374   0.236 -1.6326  1.2192  1.8763
 2245SOL     OW 6945   0.743   2.930   1.462 -0.6082 -0.0679 -0.5268
 2245SOL    HW1 6946   0.707   2.894   1.381 -1.4715 -0.6621  0.1002
 2245SOL    HW2 6947   0.789   3.009   1.435 -2.5251  0.8205 -1.3425
 2246SOL     OW 6948   0.540   4.245   1.039 -0.3748  0.1925  0.4650
 2246SOL    HW1 6949   0.613   4.203   0.993  0.2999 -0.4018  2.0267
 2246SOL    HW2 6950   0.491   4.172   1.078 -0.7975  0.7036  0.9010
 2247SOL     OW 6951   4.289   3.036   0.034 -0.0622  0.6315 -0.4980
 2247SOL    HW1 6952   4.266   3.030  -0.059  0.4279  0.1217 -0.5886
 2247SOL    HW2 6953   4.374   2.992   0.041 -0.2862  0.3081  0.2641
 2248SOL     OW 6954   3.366   2.904   3.755 -0.6649 -0.0920  0.1549
 2248SOL    HW1 6955   3.385   2.818   3.718 -0.9888 -0.5135  0.9437
 2248SOL    HW2 6956   3.352   2.888   3.848 -0.4970  0.8520  0.3565
 2249SOL     OW 6957   1.231   3.449   2.112 -0.5282  0.2807 -0.2517
 2249SOL    HW1 6958   1.179   3.424   2.188 -0.1356  1.0464  0.2793
 2249SOL    HW2 6959   1.320   3.459   2.145 -0.3477  0.6078 -0.8150
 2250SOL     OW 6960   1.551   0.544   0.197 -0.0321  0.2557 -0.7584
 2250SOL    HW1 6961   1.520   0.632   0.174 -0.5003  0.0472 -0.9267
 2250SOL    HW2 6962   1.640   0.541   0.161  0.4158  1.0596  0.2249
 2251SOL     OW 6963   2.090   2.686   0.546  0.2769  0.9298  0.0272
 2251SOL    HW1 6964   2.171   2.661   0.503 -0.1758 -1.9714  0.6397
 2251SOL    HW2 6965   2.021   2.642   0.496 -0.4912 -0.1472  1.8885
 2252SOL     OW 6966   4.004   0.943   1.519 -1.0902 -0.1066 -0.3751
 2252SOL    HW1 6967   3.967   0.897   1.594 -0.3037 -0.9454 -0.4864
 2252SOL    HW2 6968   4.053   1.016   1.557 -1.0035 -0.3102 -0.0934
 2253SOL     OW 6969   3.879   1.565   2.458 -0.0060  0.8208 -0.0598
 2253SOL    HW1 6970   3.906   1.504   2.527 -0.2878  0.4869 -0.2431
 2253SOL    HW2 6971   3.826   1.631   2.504 -2.0704 -0.6047 -0.2639
 2254SOL     OW 6972   0.206   0.105   3.695  0.4924 -0.0016  0.4055
 2254SOL    HW1 6973   0.268   0.157   3.645 -0.4528  0.1437 -0.6507
 2254SOL    HW2 6974   0.135   0.085   3.633  0.2777 -1.5720  1.1051
 2255SOL     OW 6975   1.461   1.542   0.757 -0.2598 -1.2963  0.4935
 2255SOL    HW1 6976   1.465   1.520   0.664 -1.6860 -1.3015  0.4143
 2255SOL    HW2 6977   1.469   1.637   0.760 -1.0348 -1.2167  0.2857
 2256SOL     OW 6978   3.292   1.842   2.184 -0.5886  0.2576  0.1683
 2256SOL    HW1 6979   3.322   1.810   2.269 -0.1864  0.0828 -0.0373
 2256SOL    HW2 6980   3.209   1.797   2.169 -0.5379  0.1011  0.3522
 2257SOL     OW 6981   2.682   2.119   1.499 -0.0740 -0.0969  0.4563
 2257SOL    HW1 6982   2.614   2.070   1.454 -0.4846  1.0107 -0.1583
 2257SOL    HW2 6983   2.760   2.107   1.444 -0.9948  2.7864 -1.7449
 2258SOL     OW 6984   0.269   0.815   0.908 -0.2471 -0.0227  0.8693
 2258SOL    HW1 6985   0.187   0.826   0.956 -0.0000 -0.0723  1.3057
 2258SOL    HW2 6986   0.247   0.755   0.836 -0.9630  1.1614  0.0569
 2259SOL     OW 6987   1.768   0.115   1.377 -0.1844  0.5739  0.0922
 2259SOL    HW1 6988   1.723   0.032   1.390 -0.4102  0.3609 -1.8005
 2259SOL    HW2 6989   1.722   0.157   1.305  0.9182  1.6161 -0.0496
 2260SOL     OW 6990   1.399   2.607   3.035 -0.1129  0.0610 -0.1188
 2260SOL    HW1 6991   1.442   2.601   2.949  1.5346  0.6408  0.6085
 2260SOL    HW2 6992   1.375   2.699   3.043  1.2422  0.3880  0.6668
 2261SOL     OW 6993   4.037   3.978   1.488  0.2707 -0.1697 -0.2314
 2261SOL    HW1 6994   4.096   4.008   1.556  1.7437 -0.1777 -1.4486
 2261SOL    HW2 6995   4.076   3.897   1.456 -0.1376  0.0644 -1.3768
 2262SOL     OW 6996   3.076   2.049   3.013 -0.5337 -0.9631 -0.0738
 2262SOL    HW1 6997   3.024   2.052   2.933  0.8625 -1.2879 -1.0273
 2262SOL    HW2 6998   3.139   2.121   3.003 -0.9863 -0.3546  1.2185
 2263SOL     OW 6999   0.316   4.105   1.123  0.5097 -0.2717  0.2946
 2263SOL    HW1 7000   0.275   4.019   1.111  0.1851 -0.1830  0.7798
 2263SOL    HW2 7001   0.318   4.118   1.217  1.4414 -0.1669  0.2680
 2264SOL     OW 7002   3.125   1.283   2.324 -0.0003  0.4419 -0.4350
 2264SOL    HW1 7003   3.113   1.188   2.323 -0.5618  0.4774  1.0290
 2264SOL    HW2 7004   3.220   1.296   2.331  0.0900 -0.0018 -0.8271
 2265SOL     OW 7005   2.505   3.512   1.496  0.6227 -1.4503 -0.1635
 2265SOL    HW1 7006   2.418   3.476   1.509 -0.0425  0.3903  0.9536
 2265SOL    HW2 7007   2.533   3.539   1.584  0.9133  0.9662 -0.9226
 2266SOL     OW 7008   0.260   1.084   2.811  0.4288  0.3061 -0.3709
 2266SOL    HW1 7009   0.354   1.091   2.795  0.6026  0.7286  0.7498
 2266SOL    HW2 7010   0.235   1.169   2.846 -0.5488  0.4818 -1.4094
 2267SOL     OW 7011   3.982   0.581   2.479 -0.3630  0.5887 -0.1200
 2267SOL    HW1 7012   3.980   0.539   2.393 -0.7684  0.9644 -0.3024
 2267SOL    HW2 7013   4.072   0.611   2.490 -0.6790  2.0477 -1.1780
 2268SOL     OW 7014   1.898   0.090   2.042  0.2679  0.0252  0.0048
 2268SOL    HW1 7015   1.823   0.106   1.985  0.0519  1.0592  0.5637
 2268SOL    HW2 7016   1.867   0.026   2.106  0.4355 -0.9470 -0.8601
 2269SOL     OW 7017   3.283   2.616   0.565 -0.0366 -0.6173 -0.2237
 2269SOL    HW1 7018   3.269   2.683   0.497  0.5547  0.8727  1.0577
 2269SOL    HW2 7019   3.377   2.620   0.583 -0.3836 -0.0158  1.6167
 2270SOL     OW 7020   3.522   3.682   3.476  0.0809  0.1012 -0.0842
 2270SOL    HW1 7021   3.515   3.680   3.571 -1.1172 -1.7228 -0.1669
 2270SOL    HW2 7022   3.616   3.687   3.459  0.3701 -0.5560  1.2067
 2271SOL     OW 7023   3.184   4.167   2.769 -0.7295  0.4406 -0.1288
 2271SOL    HW1 7024   3.205   4.242   2.713 -0.9270 -0.2839 -1.1814
 2271SOL    HW2 7025   3.164   4.207   2.854 -0.5689  1.5642 -0.5975
 2272SOL     OW 7026   0.701   1.449   4.086 -0.3435  0.2913  0.2726
 2272SOL    HW1 7027   0.666   1.492   4.009  0.5486  0.7004  0.0769
 2272SOL    HW2 7028   0.795   1.469   4.084 -0.0916 -0.7416  0.7734
 2273SOL     OW 7029   0.762   0.957   3.110 -0.1575  0.4512 -0.3005
 2273SOL    HW1 7030   0.727   1.041   3.139  0.9462  0.5440  0.8545
 2273SOL    HW2 7031   0.849   0.953   3.148 -0.5884 -1.7023  0.6336
 2274SOL     OW 7032   1.564   1.166   3.924  0.1797 -0.0574 -0.1742
 2274SOL    HW1 7033   1.638   1.225   3.911  0.3961 -0.4573 -0.7724
 2274SOL    HW2 7034   1.574   1.099   3.857 -2.7507  1.8942 -2.8634
 2275SOL     OW 7035   1.306   0.159   1.110 -0.0096 -0.1604  0.4446
 2275SOL    HW1 7036   1.235   0.189   1.166  0.4658 -0.8775  1.4373
 2275SOL    HW2 7037   1.354   0.096   1.162  2.6597  1.8457  0.6258
 2276SOL     OW 7038   0.822   1.849   2.272 -0.1783 -0.0630  0.2217
 2276SOL    HW1 7039   0.795   1.762   2.243  0.0497 -0.0939  0.0929
 2276SOL    HW2 7040   0.891   1.832   2.336 -1.1015 -0.0117  1.2447
 2277SOL     OW 7041   0.666   3.492   3.528  0.5000 -0.0589  0.5843
 2277SOL    HW1 7042   0.717   3.412   3.544 -1.0003 -0.9096  1.3259
 2277SOL    HW2 7043   0.639   3.522   3.615  0.4454  0.8573  0.2646
 2278SOL     OW 7044   0.079   1.350   2.026 -0.3494  0.4976  0.2999
 2278SOL    HW1 7045   0.098   1.351   2.120 -1.7056 -0.4702  0.6103
 2278SOL    HW2 7046   0.087   1.441   1.999  1.0889  0.6493  1.1135
 2279SOL     OW 7047   3.379   4.025   3.229 -0.0467 -0.4911  0.0061
 2279SOL    HW1 7048   3.459   4.048   3.181 -0.4166 -0.8807 -0.8173
 2279SOL    HW2 7049   3.322   4.101   3.219  0.0723 -0.3655  0.2709
 2280SOL     OW 7050   3.741   4.121   2.039  0.1113 -0.1084 -0.2812
 2280SOL    HW1 7051   3.697   4.039   2.018 -0.6303  0.5331 -1.3542
 2280SOL    HW2 7052   3.728   4.175   1.961 -1.3391  1.8407  1.2214
 2281SOL     OW 7053   2.350   1.207   2.410  0.6009  0.5785  0.1583
 2281SOL    HW1 7054   2.346   1.152   2.488  0.0765  1.3416  0.6788
 2281SOL    HW2 7055   2.312   1.291   2.437 -0.4933  0.5470 -1.1801
 2282SOL     OW 7056   2.774   0.333   1.074 -0.5369  0.1971 -0.0393
 2282SOL    HW1 7057   2.689   0.343   1.117 -0.7096 -0.4552 -0.2214
 2282SOL    HW2 7058   2.817   0.262   1.122 -0.2857  0.2091 -0.2469
 2283SOL     OW 7059   0.380   3.939   2.377 -0.7270 -0.2203 -0.2577
 2283SOL    HW1 7060   0.383   3.968   2.469 -0.7450  0.9522 -0.6130
 2283SOL    HW2 7061   0.472   3.931   2.352 -0.7188  0.0282 -0.3087
 2284SOL     OW 7062   3.402   2.257   2.794  0.7732  0.7938  0.2891
 2284SOL    HW1 7063   3.482   2.221   2.756 -0.1155 -1.2443  0.2429
 2284SOL    HW2 7064   3.433   2.323   2.856  2.4794  0.1564  0.1609
 2285SOL     OW 7065   0.230   0.982   1.518  0.2439  0.4673 -0.0793
 2285SOL    HW1 7066   0.269   1.066   1.493 -0.2092  1.5268  2.3992
 2285SOL    HW2 7067   0.265   0.966   1.606 -0.8123 -1.2169  0.0681
 2286SOL     OW 7068   0.003   3.299   0.399 -0.4366  0.0770  0.1432
 2286SOL    HW1 7069   0.028   3.286   0.308 -1.5810 -1.4279  0.0083
 2286SOL    HW2 7070  -0.087   3.332   0.394  0.1315  1.8277  0.7062
 2287SOL     OW 7071   2.865   3.287   1.926 -0.1454  0.0760 -0.6011
 2287SOL    HW1 7072   2.925   3.310   1.997 -0.4802  0.0610 -0.3099
 2287SOL    HW2 7073   2.889   3.198   1.902 -0.4931 -0.1758 -0.0260
 2288SOL     OW 7074   2.517   0.729   0.634  0.5839  0.3146 -0.0842
 2288SOL    HW1 7075   2.588   0.686   0.682  0.6091  1.0280  0.5361
 2288SOL    HW2 7076   2.506   0.814   0.677 -0.5128  0.3041 -0.2905
 2289SOL     OW 7077   3.736   1.556   0.457 -0.5136  0.1234  0.5168
 2289SOL    HW1 7078   3.773   1.607   0.385  2.2006 -1.9911  0.2287
 2289SOL    HW2 7079   3.736   1.616   0.531 -1.8079  1.8484 -0.7992
 2290SOL     OW 7080   4.228   0.743   1.422  0.3377  0.8309 -0.0051
 2290SOL    HW1 7081   4.262   0.741   1.511  3.1098  0.6763 -0.9820
 2290SOL    HW2 7082   4.202   0.834   1.408 -0.5403  0.7689  1.0504
 2291SOL     OW 7083   0.251   3.727   0.815 -0.0952 -0.0290 -0.4336
 2291SOL    HW1 7084   0.245   3.657   0.750 -3.0065  0.7647 -1.1742
 2291SOL    HW2 7085   0.332   3.773   0.792  0.5859 -1.6406 -1.4799
 2292SOL     OW 7086   4.155   1.409   1.434  0.3822 -0.1437  0.3201
 2292SOL    HW1 7087   4.065   1.392   1.461 -0.1083  0.7451 -0.6703
 2292SOL    HW2 7088   4.191   1.465   1.504  0.0213 -0.1249  0.4919
 2293SOL     OW 7089   0.930   2.430   2.606 -0.3766 -0.4768  0.2135
 2293SOL    HW1 7090   0.946   2.434   2.512  0.3994 -2.7173  0.2015
 2293SOL    HW2 7091   0.850   2.481   2.619 -0.7980 -0.5758 -1.7272
 2294SOL     OW 7092   3.290   1.393   3.518 -0.1845  0.1631  1.0781
 2294SOL    HW1 7093   3.204   1.381   3.559 -0.4896  0.3762  0.5141
 2294SOL    HW2 7094   3.295   1.487   3.501 -0.8593 -0.1313 -1.0365
 2295SOL     OW 7095   3.269   1.234   1.759  0.2563 -0.2542  0.5650
 2295SOL    HW1 7096   3.361   1.251   1.738 -0.1077 -1.2695 -2.3079
 2295SOL    HW2 7097   3.259   1.263   1.849  2.8833  1.8262  0.2988
 2296SOL     OW 7098   2.309   0.789   2.766 -0.2850  0.8662 -0.4687
 2296SOL    HW1 7099   2.357   0.727   2.712  0.4627  0.6722  0.3989
 2296SOL    HW2 7100   2.362   0.798   2.845 -1.8936  0.2753  0.7383
 2297SOL     OW 7101   2.182   2.974   2.244  0.1348 -0.1656  0.0561
 2297SOL    HW1 7102   2.107   2.998   2.188 -0.2443  0.2404  0.7307
 2297SOL    HW2 7103   2.258   2.992   2.190 -0.2050  0.8284 -0.1252
 2298SOL     OW 7104   3.346   4.288   1.646  0.4605 -0.4521  0.3027
 2298SOL    HW1 7105   3.367   4.230   1.573  0.6686 -0.0231  0.0162
 2298SOL    HW2 7106   3.280   4.348   1.611  0.2547 -0.5082  0.5931
 2299SOL     OW 7107   3.919   2.488   4.137  0.0736  0.0642  0.1723
 2299SOL    HW1 7108   3.977   2.462   4.066 -1.1136 -1.7170 -0.1912
 2299SOL    HW2 7109   3.838   2.514   4.094  0.5411  2.6532  0.6683
 2300SOL     OW 7110   3.181   0.905   0.042 -0.4655 -0.1556 -0.8512
 2300SOL    HW1 7111   3.116   0.836   0.031 -0.7362  0.2586 -2.0726
 2300SOL    HW2 7112   3.212   0.922  -0.047  1.3296 -0.3524 -0.2934
 2301SOL     OW 7113   0.809   0.026   3.515  0.1069  0.5212 -0.2513
 2301SOL    HW1 7114   0.822   0.045   3.608 -1.9482  0.5735  0.0673
 2301SOL    HW2 7115   0.865   0.090   3.470  0.9401  0.6596  0.9242
 2302SOL     OW 7116   3.416   3.858   2.202 -1.0357  0.4037 -0.1262
 2302SOL    HW1 7117   3.337   3.909   2.218 -1.8472  0.0345 -2.5065
 2302SOL    HW2 7118   3.386   3.781   2.153  0.6122 -0.4935  0.1788
 2303SOL     OW 7119   2.459   1.304   0.733 -0.2687  0.0849  0.1285
 2303SOL    HW1 7120   2.477   1.395   0.758 -1.5942  0.8493 -1.5645
 2303SOL    HW2 7121   2.468   1.255   0.815  0.2885  1.7546  1.1157
 2304SOL     OW 7122   0.363   1.589   1.822  0.3105 -0.7552 -0.1509
 2304SOL    HW1 7123   0.453   1.620   1.820  0.2818 -0.6656 -0.0736
 2304SOL    HW2 7124   0.312   1.665   1.852  0.3035 -1.0287  0.5502
 2305SOL     OW 7125   1.870   4.011   1.107 -0.1217 -0.4002 -0.5443
 2305SOL    HW1 7126   1.921   3.945   1.060  0.1548 -0.6262  0.0591
 2305SOL    HW2 7127   1.805   3.961   1.156 -1.6857 -0.0437 -2.1885
 2306SOL     OW 7128   3.163   2.464   4.082  0.4018  0.2945 -0.0334
 2306SOL    HW1 7129   3.138   2.375   4.109  0.5559  0.1383 -0.3932
 2306SOL    HW2 7130   3.227   2.491   4.148 -0.0327  0.3458  0.3764
 2307SOL     OW 7131   3.952   0.712   1.846 -0.1018  0.4195  0.5173
 2307SOL    HW1 7132   4.039   0.676   1.829 -1.1197 -1.8462 -0.2754
 2307SOL    HW2 7133   3.904   0.640   1.887 -1.7897  1.4062  0.3632
 2308SOL     OW 7134   0.172   3.856   3.964  0.3393  0.0857  0.3799
 2308SOL    HW1 7135   0.130   3.942   3.959 -0.6340 -0.3420  0.8605
 2308SOL    HW2 7136   0.143   3.810   3.885  1.9501  0.6490 -0.5740
 2309SOL     OW 7137   1.802   3.481   3.045 -0.8501 -0.1736 -0.0107
 2309SOL    HW1 7138   1.813   3.520   3.132 -0.7627  1.2305 -0.6213
 2309SOL    HW2 7139   1.889   3.447   3.024 -1.3514 -2.4604  1.2992
 2310SOL     OW 7140   2.939   0.537   0.992  0.3025  0.4651 -0.0759
 2310SOL    HW1 7141   3.027   0.503   0.976  0.4749 -0.2967  2.0529
 2310SOL    HW2 7142   2.889   0.460   1.020 -0.0599  1.4275  2.1310
 2311SOL     OW 7143   1.717   0.601   2.953 -0.3677  0.2814  0.0634
 2311SOL    HW1 7144   1.806   0.568   2.962 -0.7582 -2.2543 -3.3808
 2311SOL    HW2 7145   1.727   0.696   2.950  2.1441  0.0983  0.3514
 2312SOL     OW 7146   2.601   0.655   1.523 -0.5553  0.3538  0.3279
 2312SOL    HW1 7147   2.523   0.607   1.494 -0.5145  0.7357 -0.4441
 2312SOL    HW2 7148   2.572   0.747   1.526  0.3670  0.7840 -1.9164
 2313SOL     OW 7149   0.207   1.061   3.418  0.3038 -0.3977  0.1761
 2313SOL    HW1 7150   0.278   1.057   3.354  0.3277 -0.0825  0.1804
 2313SOL    HW2 7151   0.222   1.144   3.465 -0.9042  0.4237 -0.8223
 2314SOL     OW 7152   0.315   1.750   3.978  0.2360  0.1658 -0.1633
 2314SOL    HW1 7153   0.272   1.713   4.055  0.5505 -0.8225 -0.4612
 2314SOL    HW2 7154   0.404   1.769   4.007  0.8380 -1.6798 -0.6982
 2315SOL     OW 7155   3.749   0.973   3.901  0.4037 -0.1792  1.2004
 2315SOL    HW1 7156   3.833   0.963   3.857 -0.1741 -0.3367  0.0802
 2315SOL    HW2 7157   3.727   1.066   3.890  0.1821 -0.2536  1.0117
 2316SOL     OW 7158   3.597   1.283   1.678  0.1931 -0.0764 -0.5678
 2316SOL    HW1 7159   3.657   1.208   1.680 -0.5732 -0.7040 -0.4901
 2316SOL    HW2 7160   3.654   1.360   1.673  1.0324 -0.6020  0.4745
 2317SOL     OW 7161   3.803   3.645   1.567  0.1371 -0.2684 -0.4792
 2317SOL    HW1 7162   3.755   3.697   1.631 -0.4625 -0.7063 -0.5662
 2317SOL    HW2 7163   3.777   3.555   1.585 -0.4609 -0.3582 -1.6768
 2318SOL     OW 7164   1.770   3.556   1.892 -0.2576  0.2204 -0.4353
 2318SOL    HW1 7165   1.825   3.634   1.889 -0.8585  0.6360 -0.9368
 2318SOL    HW2 7166   1.778   3.518   1.804 -0.6896  0.2279 -0.4769
 2319SOL     OW 7167   2.152   3.840   3.232  0.1948  0.0668  0.1550
 2319SOL    HW1 7168   2.149   3.907   3.301  1.7450  0.5633 -0.2387
 2319SOL    HW2 7169   2.169   3.758   3.279  1.3020  0.4108  0.3695
 2320SOL     OW 7170   0.980   2.790   1.865  0.4580  0.7637  0.0529
 2320SOL    HW1 7171   0.954   2.865   1.920  0.6555 -0.6829  2.2193
 2320SOL    HW2 7172   0.992   2.828   1.779 -2.3781  2.7359  0.3593
 2321SOL     OW 7173   2.588   1.944   1.157 -0.4062 -0.0114 -0.0252
 2321SOL    HW1 7174   2.673   1.935   1.113  0.2853  1.4174  0.8956
 2321SOL    HW2 7175   2.524   1.941   1.087  0.5523  0.7317 -0.9696
 2322SOL     OW 7176   2.846   0.617   3.174  0.5053  0.4728  0.4068
 2322SOL    HW1 7177   2.781   0.677   3.139 -0.0929 -1.1291 -1.3980
 2322SOL    HW2 7178   2.808   0.586   3.257 -0.0665  1.0628  0.3719
 2323SOL     OW 7179   2.263   1.545   1.314  0.0663 -0.4752  0.5205
 2323SOL    HW1 7180   2.227   1.473   1.366 -2.1830 -0.8380 -1.3985
 2323SOL    HW2 7181   2.283   1.505   1.230  0.9015  0.7054  0.1496
 2324SOL     OW 7182   3.323   3.525   2.897  0.3427  0.2109  0.0567
 2324SOL    HW1 7183   3.416   3.539   2.881 -0.1873  0.5184 -3.9302
 2324SOL    HW2 7184   3.281   3.607   2.871 -1.1756 -0.7606 -0.7840
 2325SOL     OW 7185   4.171   3.843   0.615  0.2272  0.1037  0.0803
 2325SOL    HW1 7186   4.093   3.817   0.664  0.7171 -3.3182 -0.7084
 2325SOL    HW2 7187   4.244   3.804   0.663  0.9992 -0.5498 -1.5296
 2326SOL     OW 7188   3.610   1.138   2.855  0.1629  0.2311  0.0350
 2326SOL    HW1 7189   3.563   1.220   2.871 -0.0059  0.1783 -0.1831
 2326SOL    HW2 7190   3.678   1.136   2.922 -1.0723 -0.4310  1.3165
 2327SOL     OW 7191   2.275   3.861   0.934 -0.9233 -0.4737  0.2954
 2327SOL    HW1 7192   2.256   3.789   0.993  0.2001 -0.5827  0.5392
 2327SOL    HW2 7193   2.302   3.933   0.991 -2.0266  0.1608  0.0580
 2328SOL     OW 7194   2.939   1.871   1.135 -0.0974  0.6608 -0.0323
 2328SOL    HW1 7195   2.894   1.903   1.056  0.2924  0.1385 -0.4777
 2328SOL    HW2 7196   2.925   1.777   1.134 -1.5116  0.8206  1.4565
 2329SOL     OW 7197   2.154   0.525   2.950 -0.0848 -0.1211  0.0042
 2329SOL    HW1 7198   2.197   0.505   3.034 -2.0362  0.0486  1.1030
 2329SOL    HW2 7199   2.211   0.486   2.884  0.3794 -2.2653  1.5517
 2330SOL     OW 7200   2.526   1.503   3.629  0.6928  0.0205  0.0392
 2330SOL    HW1 7201   2.514   1.467   3.717 -0.0744 -0.5971 -0.3019
 2330SOL    HW2 7202   2.609   1.465   3.598  0.4120 -0.6351  0.0820
 2331SOL     OW 7203   3.603   0.387   0.950 -0.0737 -0.0885  0.3123
 2331SOL    HW1 7204   3.570   0.364   1.037 -1.2967 -0.6356 -0.2772
 2331SOL    HW2 7205   3.584   0.481   0.942  0.1084 -0.0183  0.6567
 2332SOL     OW 7206   2.173   2.646   2.846 -0.3095  0.0012 -0.1758
 2332SOL    HW1 7207   2.240   2.705   2.882 -0.1779 -1.0507  1.4316
 2332SOL    HW2 7208   2.091   2.677   2.884 -0.4658  0.1086 -0.5985
 2333SOL     OW 7209   3.876   1.686   1.426 -0.4960 -0.2755  0.4643
 2333SOL    HW1 7210   3.951   1.725   1.381 -1.0355 -0.3395 -0.5199
 2333SOL    HW2 7211   3.799   1.726   1.384 -1.0161  0.2399  1.8612
 2334SOL     OW 7212   0.868   3.021   1.974 -0.2177  0.1229 -0.6579
 2334SOL    HW1 7213   0.773   3.034   1.977 -0.3499 -0.7595 -0.6128
 2334SOL    HW2 7214   0.900   3.082   1.908 -0.9142 -0.1138 -1.2136
 2335SOL     OW 7215   3.618   0.756   2.531  0.1403 -0.2654 -0.2944
 2335SOL    HW1 7216   3.545   0.741   2.591  0.3856  0.4688  0.2096
 2335SOL    HW2 7217   3.613   0.850   2.511  0.0994 -0.4942 -1.3801
 2336SOL     OW 7218   1.268   0.284   0.812  0.0500 -0.2089 -0.3623
 2336SOL    HW1 7219   1.255   0.247   0.899 -0.1260 -0.0636 -0.3249
 2336SOL    HW2 7220   1.333   0.353   0.824  0.1202 -0.2744 -0.3686
 2337SOL     OW 7221   4.134   1.887   0.628 -0.0317 -0.3983 -0.0817
 2337SOL    HW1 7222   4.065   1.950   0.611 -1.1134 -0.5433  3.2574
 2337SOL    HW2 7223   4.208   1.939   0.659  0.3399 -0.5103 -0.7506
 2338SOL     OW 7224   0.491   0.424   2.675 -0.5231  0.2521 -0.3767
 2338SOL    HW1 7225   0.543   0.501   2.699 -1.3768  0.2148  1.9229
 2338SOL    HW2 7226   0.554   0.360   2.643  0.5168  1.0612  0.0136
 2339SOL     OW 7227   4.103   3.603   3.917  0.3084  0.0049 -0.5515
 2339SOL    HW1 7228   4.117   3.642   4.003 -0.0284 -0.8072 -0.1156
 2339SOL    HW2 7229   4.170   3.642   3.861 -0.1653  1.3759 -0.2004
 2340SOL     OW 7230   0.663   2.065   2.355 -0.0652 -0.1942 -0.2171
 2340SOL    HW1 7231   0.696   1.982   2.320  0.5217  0.0408 -0.2401
 2340SOL    HW2 7232   0.591   2.040   2.413 -0.5105 -0.6481 -0.9563
 2341SOL     OW 7233   2.662   0.314   0.734 -0.3280  0.0770  0.2111
 2341SOL    HW1 7234   2.718   0.279   0.804 -2.5081 -1.5427  1.2563
 2341SOL    HW2 7235   2.663   0.408   0.748 -1.1557 -0.2267  2.8699
 2342SOL     OW 7236   2.431   0.836   2.369 -0.0046 -0.2307  0.2991
 2342SOL    HW1 7237   2.360   0.773   2.359 -0.5640  0.7058 -2.7328
 2342SOL    HW2 7238   2.395   0.918   2.335  1.5530  1.0641  1.6153
 2343SOL     OW 7239   3.410   4.062   1.881  0.7513  0.3426  0.2837
 2343SOL    HW1 7240   3.346   4.133   1.885  1.2772  0.7941  1.5595
 2343SOL    HW2 7241   3.440   4.061   1.790  1.9158  2.8918  0.5192
 2344SOL     OW 7242   0.864   0.072   3.773 -0.3746 -0.2787  0.2421
 2344SOL    HW1 7243   0.783   0.121   3.789 -1.4623 -1.0097 -2.4706
 2344SOL    HW2 7244   0.853  -0.010   3.821 -1.0361 -0.1744  0.2744
 2345SOL     OW 7245   3.101   0.361   2.689 -0.0485  0.8630  0.2106
 2345SOL    HW1 7246   3.053   0.375   2.771  0.5870  1.6576  0.4613
 2345SOL    HW2 7247   3.057   0.417   2.625 -0.8672 -0.1409 -0.1479
 2346SOL     OW 7248   0.412   1.474   0.107  0.2461  0.1510  0.4516
 2346SOL    HW1 7249   0.449   1.533   0.040  0.7326  0.2074  0.7627
 2346SOL    HW2 7250   0.338   1.523   0.144 -1.4593 -0.7624 -1.5721
 2347SOL     OW 7251   3.421   2.907   1.006 -0.1841 -0.1547 -0.2228
 2347SOL    HW1 7252   3.383   2.826   1.040  0.0168 -1.1012 -2.0901
 2347SOL    HW2 7253   3.509   2.909   1.041 -0.5528 -0.1528  0.7287
 2348SOL     OW 7254   3.729   1.644   1.872 -0.3495  0.0599  0.0687
 2348SOL    HW1 7255   3.668   1.610   1.937  0.2832  1.0786  1.2471
 2348SOL    HW2 7256   3.716   1.739   1.873 -0.7854  0.0735 -1.8081
 2349SOL     OW 7257   0.447   0.666   4.257 -0.1614  0.3615  0.2273
 2349SOL    HW1 7258   0.497   0.738   4.296 -1.3240  0.9166  0.7652
 2349SOL    HW2 7259   0.466   0.591   4.313  1.0199  0.2466 -0.3037
 2350SOL     OW 7260   4.217   0.315   3.561  0.0784 -0.3519 -0.0687
 2350SOL    HW1 7261   4.153   0.248   3.584 -2.5993  1.1864 -2.3476
 2350SOL    HW2 7262   4.256   0.341   3.644 -1.0565 -2.4908  1.2316
 2351SOL     OW 7263   2.335   3.412   1.210  0.3379  0.0335 -0.3330
 2351SOL    HW1 7264   2.353   3.383   1.300 -1.2979 -1.1326 -0.3359
 2351SOL    HW2 7265   2.346   3.333   1.157 -2.5625 -0.3013 -0.5768
 2352SOL     OW 7266   0.894   0.797   3.762 -0.4637 -0.1655  0.0353
 2352SOL    HW1 7267   0.819   0.845   3.726  0.6748  2.8550  1.3278
 2352SOL    HW2 7268   0.877   0.793   3.856  0.5986 -0.1144  0.2412
 2353SOL     OW 7269   0.711   3.704   1.533 -0.1837  0.1718  0.1479
 2353SOL    HW1 7270   0.684   3.620   1.569 -0.3238  0.3815  0.5364
 2353SOL    HW2 7271   0.776   3.681   1.466 -0.5474 -0.2692 -0.0593
 2354SOL     OW 7272   0.856   2.417   1.352 -0.0117 -0.2139  0.0016
 2354SOL    HW1 7273   0.943   2.444   1.321 -0.6142  0.7350 -0.9197
 2354SOL    HW2 7274   0.873   2.374   1.436  1.4267 -0.7185 -0.5086
 2355SOL     OW 7275   0.081   3.320   1.991  0.2836 -0.0542  0.4056
 2355SOL    HW1 7276   0.075   3.346   1.899  0.9291  0.5340  0.5153
 2355SOL    HW2 7277   0.038   3.391   2.038  0.1478 -0.2476  0.5720
 2356SOL     OW 7278   3.966   0.713   3.919  0.0596 -0.0044  0.4198
 2356SOL    HW1 7279   3.919   0.787   3.879  1.2244  0.3192 -0.4460
 2356SOL    HW2 7280   3.938   0.637   3.868 -0.2505  0.0360  0.5305
 2357SOL     OW 7281   0.724   0.851   1.413  0.1661  0.2018 -0.0088
 2357SOL    HW1 7282   0.783   0.815   1.479 -1.5716 -0.6109  1.1719
 2357SOL    HW2 7283   0.758   0.939   1.395  1.7587 -0.2663  0.5438
 2358SOL     OW 7284   3.804   3.491   3.023  0.1654 -0.3948  0.3405
 2358SOL    HW1 7285   3.774   3.561   3.082 -0.8424  0.2183 -0.8422
 2358SOL    HW2 7286   3.764   3.412   3.059 -0.4643 -0.0296  0.4762
 2359SOL     OW 7287   4.161   4.288   3.132  0.1014  0.1896 -0.2964
 2359SOL    HW1 7288   4.210   4.343   3.070 -2.6311  0.3255 -2.5847
 2359SOL    HW2 7289   4.120   4.221   3.077 -0.6298 -1.1342  1.7456
 2360SOL     OW 7290   3.267   3.778   1.636 -0.4135  0.5417 -0.5486
 2360SOL    HW1 7291   3.204   3.823   1.579  0.4046 -1.0505 -2.8682
 2360SOL    HW2 7292   3.351   3.791   1.593  0.1752 -1.1571  0.0201
 2361SOL     OW 7293   2.923   4.162   0.050 -0.5424  0.5959  0.5661
 2361SOL    HW1 7294   3.016   4.172   0.069 -0.1404 -0.2051 -0.8317
 2361SOL    HW2 7295   2.888   4.251   0.055  0.5918  1.1170 -0.2650
 2362SOL     OW 7296   0.611   1.734   0.302 -0.9429  0.5162 -0.0392
 2362SOL    HW1 7297   0.641   1.645   0.283 -0.8039  0.5471  0.0362
 2362SOL    HW2 7298   0.652   1.788   0.234 -0.4504  0.6262  0.3444
 2363SOL     OW 7299   3.182   1.379   2.039 -0.3918 -0.0350 -0.3679
 2363SOL    HW1 7300   3.159   1.451   2.098  0.6687  1.0627 -1.2413
 2363SOL    HW2 7301   3.098   1.346   2.008 -0.9849 -0.7147  1.8049
 2364SOL     OW 7302   0.312   3.407   0.294 -0.4320 -0.2345  0.0903
 2364SOL    HW1 7303   0.295   3.377   0.205  1.9917  1.3957 -1.0561
 2364SOL    HW2 7304   0.344   3.330   0.340  0.4691 -0.6512 -1.1654
 2365SOL     OW 7305   3.908   0.966   0.308 -0.5177  0.4344 -0.1451
 2365SOL    HW1 7306   3.974   0.991   0.373 -0.3669 -0.6202  0.1341
 2365SOL    HW2 7307   3.863   0.891   0.348 -1.5699  0.8367 -0.5342
 2366SOL     OW 7308   1.524   2.430   4.285  0.2346  0.2643 -0.2592
 2366SOL    HW1 7309   1.577   2.391   4.354  0.2848 -2.9192 -1.9111
 2366SOL    HW2 7310   1.588   2.462   4.221  0.3285 -1.8941 -1.3638
 2367SOL     OW 7311   0.619   1.145   3.242  0.2167  0.1464  0.2190
 2367SOL    HW1 7312   0.660   1.130   3.327  1.5046  0.1456 -0.3740
 2367SOL    HW2 7313   0.647   1.233   3.218 -1.9447  1.0507  0.7512
 2368SOL     OW 7314   2.653   2.542   4.292 -0.0217  0.0350 -0.0110
 2368SOL    HW1 7315   2.649   2.448   4.272  0.1830  0.1537 -0.6187
 2368SOL    HW2 7316   2.735   2.571   4.251 -2.8349  1.7547 -5.2749
 2369SOL     OW 7317   3.742   2.878   2.537 -0.1404  0.3473  0.4465
 2369SOL    HW1 7318   3.756   2.854   2.446  0.8388  1.0389  0.3979
 2369SOL    HW2 7319   3.680   2.812   2.570 -1.0854  0.5246 -0.8969
 2370SOL     OW 7320   0.903   3.936   1.557 -0.0151 -0.8026 -0.4188
 2370SOL    HW1 7321   0.924   3.988   1.480 -0.8466  0.5323  0.2140
 2370SOL    HW2 7322   0.815   3.901   1.538  0.0407 -0.9855 -0.3378
 2371SOL     OW 7323   2.872   0.004   2.740 -0.0151 -0.0572 -0.4068
 2371SOL    HW1 7324   2.815   0.054   2.682  0.3889 -0.0656 -0.8123
 2371SOL    HW2 7325   2.879  -0.082   2.699 -0.7732 -0.4871  0.3326
 2372SOL     OW 7326   1.059   1.548   1.811 -0.3276  0.0659 -0.4299
 2372SOL    HW1 7327   1.102   1.544   1.725  3.9585 -0.3976  1.4634
 2372SOL    HW2 7328   1.001   1.472   1.812  0.4086 -0.5986 -2.4886
 2373SOL     OW 7329   3.556   3.806   0.847  0.1702 -0.2028 -0.1122
 2373SOL    HW1 7330   3.561   3.895   0.882  1.5746  0.2093 -1.2650
 2373SOL    HW2 7331   3.478   3.806   0.793  1.0439  0.8876 -1.4538
 2374SOL     OW 7332   1.549   3.147   0.243 -0.6675 -0.4007  0.2794
 2374SOL    HW1 7333   1.501   3.229   0.254 -0.9027 -0.6986  1.6047
 2374SOL    HW2 7334   1.514   3.089   0.311 -1.1421 -1.9164 -1.1777
 2375SOL     OW 7335   2.165   0.731   1.024  0.0011 -0.1854 -0.4191
 2375SOL    HW1 7336   2.120   0.794   0.968 -1.8829 -2.5196 -1.6711
 2375SOL    HW2 7337   2.229   0.689   0.967 -0.5765 -1.2350 -0.3030
 2376SOL     OW 7338   0.481   0.781   1.478 -0.1093  0.1392  0.0835
 2376SOL    HW1 7339   0.410   0.823   1.430  0.4423 -0.0710 -0.9372
 2376SOL    HW2 7340   0.561   0.823   1.446  0.3278 -0.5376  0.2492
 2377SOL     OW 7341   3.702   1.382   2.335  1.0414 -0.8845  0.3255
 2377SOL    HW1 7342   3.694   1.420   2.248  0.6345 -1.9049 -0.0931
 2377SOL    HW2 7343   3.773   1.432   2.377  0.5179  0.3245 -0.1904
 2378SOL     OW 7344   2.746   1.287   2.979 -0.5811  0.5028 -0.5902
 2378SOL    HW1 7345   2.774   1.366   3.025 -0.6941  1.2108 -1.7181
 2378SOL    HW2 7346   2.814   1.272   2.913 -1.6352  0.9137 -1.8126
 2379SOL     OW 7347   2.015   4.283   1.339 -0.0122 -0.6988 -0.2388
 2379SOL    HW1 7348   1.944   4.238   1.292 -1.0203 -1.5056  1.9072
 2379SOL    HW2 7349   1.971   4.357   1.381  1.2423  1.1802 -2.0359
 2380SOL     OW 7350   0.886   2.395   4.135  0.7927 -0.3581 -0.6184
 2380SOL    HW1 7351   0.981   2.395   4.152  1.0362  0.9949 -1.7378
 2380SOL    HW2 7352   0.846   2.393   4.222  1.8294 -1.2172 -0.1326
 2381SOL     OW 7353   1.532   1.324   1.576 -0.0966  0.0762  0.2454
 2381SOL    HW1 7354   1.570   1.386   1.513 -0.1064 -0.1692 -0.0012
 2381SOL    HW2 7355   1.576   1.344   1.659  0.0566  0.2674  0.1187
 2382SOL     OW 7356   3.027   3.341   0.834 -0.2278 -0.2655 -0.9750
 2382SOL    HW1 7357   2.940   3.358   0.870  0.3848 -0.1133  0.4998
 2382SOL    HW2 7358   3.078   3.309   0.909  0.9814 -0.3688 -1.8185
 2383SOL     OW 7359   0.876   0.398   1.048  0.0466  0.0135  0.2144
 2383SOL    HW1 7360   0.873   0.382   0.954  0.6315  0.8739  0.0421
 2383SOL    HW2 7361   0.943   0.338   1.080  1.4445  1.2543 -0.2657
 2384SOL     OW 7362   2.512   2.381   3.624  0.3033 -0.2840 -0.0355
 2384SOL    HW1 7363   2.606   2.398   3.626  0.1862  0.4641 -0.5378
 2384SOL    HW2 7364   2.489   2.360   3.714  0.9432 -0.4292  0.0989
 2385SOL     OW 7365   1.559   0.629   0.481  0.2705  0.3938  0.1242
 2385SOL    HW1 7366   1.509   0.597   0.406  1.1899 -0.2499 -0.2281
 2385SOL    HW2 7367   1.603   0.551   0.515 -1.6600  0.2294  2.5846
 2386SOL     OW 7368   0.089   3.592   1.249 -0.1461  0.1048  0.0196
 2386SOL    HW1 7369   0.131   3.570   1.166  0.2684  0.2226  0.1907
 2386SOL    HW2 7370   0.099   3.513   1.302  0.9764  0.5300  0.4901
 2387SOL     OW 7371   4.013   1.322   3.607  0.3342 -0.0156 -0.0579
 2387SOL    HW1 7372   3.962   1.263   3.552  2.8791 -1.7074 -0.7791
 2387SOL    HW2 7373   4.086   1.269   3.638  0.4454  1.6339  2.8297
 2388SOL     OW 7374   4.229   1.007   2.203  0.8928  0.7583 -0.4215
 2388SOL    HW1 7375   4.235   0.983   2.111 -0.8309  0.0635 -0.3877
 2388SOL    HW2 7376   4.233   0.924   2.250 -1.4086  0.7661 -0.0883
 2389SOL     OW 7377   2.331   0.898   4.032  0.0963  0.0492 -0.1327
 2389SOL    HW1 7378   2.354   0.933   4.118 -0.1531  0.3180 -0.1728
 2389SOL    HW2 7379   2.326   0.803   4.045 -0.7649  0.1494  0.3558
 2390SOL     OW 7380   0.622   0.860   2.024  0.5462  0.1038  0.2554
 2390SOL    HW1 7381   0.629   0.794   2.093  0.7856 -0.3168 -0.1677
 2390SOL    HW2 7382   0.700   0.914   2.033  0.6316 -0.0188  0.2396
 2391SOL     OW 7383   2.742   2.639   1.514  0.3411 -0.1674 -0.1045
 2391SOL    HW1 7384   2.695   2.559   1.538 -0.4376 -0.0384 -1.1328
 2391SOL    HW2 7385   2.733   2.695   1.591  0.1204 -0.7276  0.2913
 2392SOL     OW 7386   2.432   0.031   3.196  0.3785  0.0413 -0.3388
 2392SOL    HW1 7387   2.408   0.064   3.283  0.5191 -0.3003 -0.1710
 2392SOL    HW2 7388   2.361  -0.028   3.172  0.4763 -0.0740 -0.3417
 2393SOL     OW 7389   2.620   1.872   0.301  0.1318  0.1255 -0.1323
 2393SOL    HW1 7390   2.679   1.941   0.331  2.6108 -1.9201  0.1306
 2393SOL    HW2 7391   2.671   1.824   0.235 -1.6307 -1.1942 -0.6218
 2394SOL     OW 7392   2.248   3.027   1.347 -0.2956  0.3706  0.0486
 2394SOL    HW1 7393   2.284   3.000   1.263 -1.9336 -2.1723  0.0330
 2394SOL    HW2 7394   2.160   3.058   1.327  0.1362  2.0073  0.5895
 2395SOL     OW 7395   3.213   4.273   1.881  0.2866 -0.1561 -0.1847
 2395SOL    HW1 7396   3.243   4.274   1.790 -0.6142 -1.8617 -0.5375
 2395SOL    HW2 7397   3.167   4.356   1.892 -0.0154 -0.1433 -1.4317
 2396SOL     OW 7398   0.630   1.887   4.087  0.2063 -0.4962  0.1705
 2396SOL    HW1 7399   0.568   1.960   4.073  0.7304 -0.3134 -1.3877
 2396SOL    HW2 7400   0.700   1.903   4.024  0.4646 -2.2198 -0.0070
 2397SOL     OW 7401   0.672   2.282   0.670  0.1092 -0.0650 -0.2054
 2397SOL    HW1 7402   0.665   2.377   0.668  0.2545 -0.0602 -2.2990
 2397SOL    HW2 7403   0.695   2.262   0.761 -0.1146  1.8667  0.3196
 2398SOL     OW 7404   3.344   2.631   1.065  0.0510 -0.3678 -0.3968
 2398SOL    HW1 7405   3.292   2.613   0.986  1.0183 -0.5678 -1.0079
 2398SOL    HW2 7406   3.319   2.562   1.126 -0.7903 -0.1476 -0.4774
 2399SOL     OW 7407   0.266   3.733   1.468 -0.3759  0.6272 -0.2974
 2399SOL    HW1 7408   0.277   3.650   1.422  0.1815  1.3850 -1.5774
 2399SOL    HW2 7409   0.354   3.771   1.472 -0.1657  0.1015  2.4457
 2400SOL     OW 7410   2.877   2.118   1.298  0.1468  0.5856 -0.2589
 2400SOL    HW1 7411   2.843   2.185   1.239 -2.1452 -1.4949 -1.4704
 2400SOL    HW2 7412   2.901   2.045   1.241 -1.2306 -1.1409  1.2619
 2401SOL     OW 7413   0.150   2.373   0.880 -0.7002  0.0233 -0.5586
 2401SOL    HW1 7414   0.149   2.403   0.789 -0.7085 -1.6964 -1.1473
 2401SOL    HW2 7415   0.209   2.298   0.880  1.8044  1.7814  1.4829
 2402SOL     OW 7416   3.742   1.521   1.641 -0.1636  0.3833 -0.4168
 2402SOL    HW1 7417   3.784   1.585   1.583  0.4558  0.4727  0.1275
 2402SOL    HW2 7418   3.741   1.563   1.727  0.9650 -0.6354  0.1161
 2403SOL     OW 7419   3.950   3.579   3.397 -0.1704 -0.1296  0.2627
 2403SOL    HW1 7420   3.987   3.502   3.440 -0.1515 -0.4177 -0.2538
 2403SOL    HW2 7421   3.981   3.573   3.306  1.7976  1.7214  0.7133
 2404SOL     OW 7422   1.569   3.554   1.471 -0.0691 -0.7109 -0.2599
 2404SOL    HW1 7423   1.641   3.554   1.534  1.6549  0.7520 -2.1173
 2404SOL    HW2 7424   1.583   3.476   1.418  0.7644  0.0840 -1.2403
 2405SOL     OW 7425   0.744   3.958   2.859  0.0564  0.5988  0.3717
 2405SOL    HW1 7426   0.677   3.891   2.851 -0.0544  0.4605  2.0220
 2405SOL    HW2 7427   0.696   4.041   2.857 -0.1114  0.5206  0.9783
 2406SOL     OW 7428   2.953   2.213   3.209 -0.5498  0.0657  0.1915
 2406SOL    HW1 7429   3.010   2.157   3.156 -1.3799 -0.9202  0.3215
 2406SOL    HW2 7430   2.942   2.292   3.155  0.2453 -0.0719 -0.2033
 2407SOL     OW 7431   4.099   1.905   0.076  0.5816 -0.1654 -0.3241
 2407SOL    HW1 7432   4.175   1.863   0.115  0.7980  0.3827 -0.1516
 2407SOL    HW2 7433   4.076   1.975   0.136  0.2605  0.0019 -0.6360
 2408SOL     OW 7434   3.162   2.169   3.840 -0.5058  0.3099  0.2661
 2408SOL    HW1 7435   3.143   2.208   3.926  0.6519  0.2421  0.5786
 2408SOL    HW2 7436   3.130   2.080   3.847 -3.1502  1.1171 -0.4382
 2409SOL     OW 7437   3.252   3.020   3.534  0.3817 -0.4957 -0.4877
 2409SOL    HW1 7438   3.272   2.969   3.612 -0.2412 -0.7037 -0.4626
 2409SOL    HW2 7439   3.314   2.988   3.468  2.0454  0.8100  0.3470
 2410SOL     OW 7440   0.899   2.743   2.319  0.1233 -0.2488  0.3912
 2410SOL    HW1 7441   0.973   2.704   2.273 -0.1526 -2.2804  1.5713
 2410SOL    HW2 7442   0.826   2.683   2.302 -0.9677  1.0488  0.2945
 2411SOL     OW 7443   0.201   2.764   2.920  0.0444 -0.2110 -0.5265
 2411SOL    HW1 7444   0.169   2.743   3.008  0.9473 -0.2408 -0.1898
 2411SOL    HW2 7445   0.149   2.839   2.893 -1.5081 -1.3122 -0.7251
 2412SOL     OW 7446   3.364   2.522   4.253  0.3108 -0.2001  0.2882
 2412SOL    HW1 7447   3.386   2.611   4.282 -1.4726  0.0817  0.8963
 2412SOL    HW2 7448   3.445   2.473   4.264  1.0641  1.1229  0.9164
 2413SOL     OW 7449   2.207   3.414   3.695 -0.0445 -0.0981  0.0905
 2413SOL    HW1 7450   2.119   3.437   3.726 -0.9791 -0.3716 -2.1557
 2413SOL    HW2 7451   2.242   3.496   3.659 -0.1898 -0.4251 -0.8061
 2414SOL     OW 7452   0.451   2.093   2.753  0.4838 -0.0567  0.1303
 2414SOL    HW1 7453   0.434   2.138   2.671 -1.5693 -1.8721 -0.5276
 2414SOL    HW2 7454   0.504   2.155   2.804  1.2927  1.3625 -2.2735
 2415SOL     OW 7455   1.058   4.247   0.218  0.2296  0.0373 -0.8737
 2415SOL    HW1 7456   1.141   4.285   0.192 -0.1298  1.7710  0.3274
 2415SOL    HW2 7457   1.053   4.165   0.170  2.8002 -0.3133 -0.6834
 2416SOL     OW 7458   2.615   3.239   1.808  0.4490  0.1234 -0.1207
 2416SOL    HW1 7459   2.587   3.181   1.879  1.0189 -1.7872 -1.3925
 2416SOL    HW2 7460   2.708   3.254   1.825  0.3433  0.5538  0.1055
 2417SOL     OW 7461   1.921   1.038   3.497  0.5815 -0.2389 -0.0632
 2417SOL    HW1 7462   1.938   1.119   3.547 -1.7557 -0.5361  1.3999
 2417SOL    HW2 7463   1.986   0.976   3.529  1.8562  0.8020 -0.5722
 2418SOL     OW 7464   2.335   2.588   3.602 -0.1447  0.4813 -0.0313
 2418SOL    HW1 7465   2.327   2.603   3.507  0.3172  2.6987  0.2031
 2418SOL    HW2 7466   2.422   2.548   3.612  0.0320  0.7230 -0.5306
 2419SOL     OW 7467   0.906   3.833   3.908  0.1691 -0.1115  0.4028
 2419SOL    HW1 7468   0.911   3.740   3.928 -1.4766 -0.6911 -1.4960
 2419SOL    HW2 7469   0.953   3.843   3.826  0.3289  0.7292  0.5853
 2420SOL     OW 7470   0.096   1.654   2.053 -0.3082 -0.1672 -0.2833
 2420SOL    HW1 7471   0.002   1.671   2.063 -0.2306  0.0998 -0.0074
 2420SOL    HW2 7472   0.129   1.650   2.142  0.2424  1.4195 -0.3797
 2421SOL     OW 7473   0.822   3.419   1.722 -0.6945 -0.1422 -0.2045
 2421SOL    HW1 7474   0.797   3.415   1.629  0.5666  2.7642 -0.7672
 2421SOL    HW2 7475   0.899   3.475   1.724  0.7913 -2.0520  2.4084
 2422SOL     OW 7476   2.952   1.596   1.056 -0.2881 -0.1125 -0.7263
 2422SOL    HW1 7477   3.027   1.586   1.114 -0.3797 -1.1810 -0.7674
 2422SOL    HW2 7478   2.958   1.522   0.995 -3.1594 -2.2829  1.3264
 2423SOL     OW 7479   0.923   2.693   0.546  0.1016  0.3328 -0.5462
 2423SOL    HW1 7480   0.940   2.699   0.640 -0.6224 -0.0660 -0.3867
 2423SOL    HW2 7481   0.832   2.665   0.540  0.5022 -0.8650 -1.3543
 2424SOL     OW 7482   0.403   2.168   3.144  0.0933  0.2627 -0.8674
 2424SOL    HW1 7483   0.321   2.208   3.114 -0.2143 -0.0195 -0.4189
 2424SOL    HW2 7484   0.423   2.102   3.078 -0.2565  0.0566 -0.7685
 2425SOL     OW 7485   1.067   3.674   2.114  0.8227  0.2976 -0.0780
 2425SOL    HW1 7486   1.119   3.597   2.092  1.4004  0.6594 -0.0242
 2425SOL    HW2 7487   1.127   3.728   2.166 -0.1847 -0.0974  1.5527
 2426SOL     OW 7488   2.226   3.406   4.061 -0.2055 -0.1025 -0.4657
 2426SOL    HW1 7489   2.315   3.389   4.030 -0.4503  0.8988 -1.7599
 2426SOL    HW2 7490   2.200   3.325   4.105  1.0095 -0.7258 -0.8743
 2427SOL     OW 7491   4.171   3.821   3.169 -0.2521 -0.2460 -0.0536
 2427SOL    HW1 7492   4.244   3.818   3.106  0.5164  0.0320  0.8082
 2427SOL    HW2 7493   4.127   3.737   3.157  0.4608 -0.5977 -0.3009
 2428SOL     OW 7494   1.665   1.284   1.894 -0.5005  0.0560  0.6475
 2428SOL    HW1 7495   1.742   1.278   1.837  0.0628 -0.4974  1.4511
 2428SOL    HW2 7496   1.698   1.320   1.976 -1.3419  1.0266  0.5702
 2429SOL     OW 7497   3.776   3.073   1.559  0.3710  0.5976 -0.5787
 2429SOL    HW1 7498   3.750   3.151   1.509 -0.4279  0.0984 -0.9563
 2429SOL    HW2 7499   3.852   3.039   1.512  2.4614  2.6019  1.0650
 2430SOL     OW 7500   3.929   3.033   0.758  0.6007 -0.1604 -0.2640
 2430SOL    HW1 7501   3.941   3.089   0.681  1.7089 -0.4575 -0.3246
 2430SOL    HW2 7502   4.018   3.007   0.782  0.0942 -2.1929 -0.4549
 2431SOL     OW 7503   3.597   3.544   2.816  0.7947  0.1108  0.2470
 2431SOL    HW1 7504   3.614   3.637   2.831  1.8168  0.0525 -0.4157
 2431SOL    HW2 7505   3.656   3.499   2.876  0.9251 -0.1098 -0.0453
 2432SOL     OW 7506   2.046   1.021   2.211  0.8647 -0.4725  0.0189
 2432SOL    HW1 7507   2.005   1.082   2.272  2.6037  0.4068  0.3721
 2432SOL    HW2 7508   1.975   0.995   2.152 -0.4939 -0.1115  1.4217
 2433SOL     OW 7509   3.168   3.860   3.718  0.4537  0.5380  0.2677
 2433SOL    HW1 7510   3.164   3.909   3.636  0.8797  1.5837  0.8520
 2433SOL    HW2 7511   3.147   3.925   3.786  0.8306 -0.1301  1.0432
 2434SOL     OW 7512   2.991   2.836   1.202 -0.4047 -0.5055 -0.5055
 2434SOL    HW1 7513   3.069   2.845   1.256 -2.1109  1.7738  1.7908
 2434SOL    HW2 7514   2.993   2.744   1.173  2.3355 -0.9077  0.6310
 2435SOL     OW 7515   3.564   1.038   2.537 -0.4115 -0.2109 -0.1947
 2435SOL    HW1 7516   3.594   1.049   2.447 -1.4817 -0.8094 -0.6401
 2435SOL    HW2 7517   3.538   1.126   2.565 -1.0072 -0.1784 -0.8226
 2436SOL     OW 7518   0.449   4.291   2.646 -0.1355  0.0270  0.2395
 2436SOL    HW1 7519   0.465   4.230   2.574  0.2789  1.1641 -0.6736
 2436SOL    HW2 7520   0.498   4.255   2.720  0.1806 -0.6851 -0.3089
 2437SOL     OW 7521   3.022   1.168   3.361  0.0636  0.1971  0.1961
 2437SOL    HW1 7522   3.110   1.132   3.370  0.3683  1.1619  1.6347
 2437SOL    HW2 7523   3.015   1.193   3.269  2.1262  2.0385  0.4524
 2438SOL     OW 7524   0.604   3.943   3.718  0.4372  0.0936 -0.2517
 2438SOL    HW1 7525   0.696   3.916   3.717 -0.0501 -1.8480  0.8814
 2438SOL    HW2 7526   0.584   3.957   3.811 -0.2872  1.0337 -0.5325
 2439SOL     OW 7527   3.088   1.128   1.358  0.3642  0.1701  0.2770
 2439SOL    HW1 7528   3.002   1.114   1.318 -0.0338  1.1325  0.7624
 2439SOL    HW2 7529   3.120   1.209   1.317  1.8389 -1.0839 -1.1995
 2440SOL     OW 7530   0.487   2.627   2.855 -0.6336 -0.6081  0.0662
 2440SOL    HW1 7531   0.504   2.652   2.946  2.3545  1.4412 -0.9031
 2440SOL    HW2 7532   0.394   2.643   2.842 -0.8766  0.2190  2.4159
 2441SOL     OW 7533   3.088   2.348   0.488 -0.0100 -0.0913  0.3173
 2441SOL    HW1 7534   3.028   2.396   0.431 -1.5747 -2.0436  0.1793
 2441SOL    HW2 7535   3.105   2.407   0.561 -1.2449  0.9294 -0.1873
 2442SOL     OW 7536   0.103   3.072   0.734 -0.4081 -0.7173  0.4297
 2442SOL    HW1 7537   0.065   3.158   0.719 -0.4677 -0.8719 -0.3363
 2442SOL    HW2 7538   0.086   3.024   0.653  1.7657 -0.6701 -0.1179
 2443SOL     OW 7539   0.158   2.498   2.783  0.4302  0.6304 -0.2883
 2443SOL    HW1 7540   0.133   2.578   2.827 -2.4019  0.9326 -2.1668
 2443SOL    HW2 7541   0.186   2.526   2.696 -1.3227 -0.4037 -1.2359
 2444SOL     OW 7542   0.292   2.567   2.565 -0.2786  0.2937 -0.3812
 2444SOL    HW1 7543   0.366   2.581   2.506 -0.9663  0.3519 -1.2526
 2444SOL    HW2 7544   0.245   2.651   2.564 -0.4698  0.1933  0.0078
 2445SOL     OW 7545   0.717   2.840   1.167  0.2865 -0.1329  0.3708
 2445SOL    HW1 7546   0.671   2.902   1.110  1.9361  0.2622 -0.5865
 2445SOL    HW2 7547   0.679   2.755   1.144 -2.7374  0.4906  2.4217
 2446SOL     OW 7548   2.612   1.475   1.133  0.1737  0.2988  0.2158
 2446SOL    HW1 7549   2.679   1.407   1.136 -1.2582 -1.1681  0.5679
 2446SOL    HW2 7550   2.629   1.528   1.211 -1.1046 -2.1849  2.3907
 2447SOL     OW 7551   2.662   2.534   0.470  0.5453 -0.4305  0.0145
 2447SOL    HW1 7552   2.677   2.627   0.490  2.0171 -0.6856  0.1778
 2447SOL    HW2 7553   2.636   2.496   0.553 -1.9028  0.1510 -0.4107
 2448SOL     OW 7554   3.146   1.999   1.323 -0.1109  0.7406 -0.3268
 2448SOL    HW1 7555   3.189   1.924   1.363 -1.0464  0.7825  0.7932
 2448SOL    HW2 7556   3.098   1.963   1.248  0.2721  0.3944 -0.4101
 2449SOL     OW 7557   0.951   1.554   0.813  0.2980 -0.3428 -0.1950
 2449SOL    HW1 7558   1.007   1.544   0.736 -0.6783 -0.0262 -0.9795
 2449SOL    HW2 7559   0.945   1.466   0.850  2.0799 -0.2056  0.4841
 2450SOL     OW 7560   1.401   3.009   1.282 -0.2337  0.2614 -0.0827
 2450SOL    HW1 7561   1.486   2.991   1.323  0.0662  0.3872 -0.6358
 2450SOL    HW2 7562   1.392   3.104   1.288 -0.4538  0.2236  0.1995
 2451SOL     OW 7563   3.101   2.796   2.163  0.2200 -0.3478 -0.0717
 2451SOL    HW1 7564   3.109   2.772   2.071 -2.6935  1.3746 -0.9074
 2451SOL    HW2 7565   3.070   2.717   2.207  2.1073 -1.3258 -0.3799
 2452SOL     OW 7566   1.340   0.558   2.200  0.5109  0.1554 -0.0529
 2452SOL    HW1 7567   1.292   0.539   2.281  0.1383 -0.0852 -0.3275
 2452SOL    HW2 7568   1.424   0.592   2.230  0.5482 -0.3531  0.4412
 2453SOL     OW 7569   0.580   0.003   3.403 -0.1188 -0.1463 -0.0622
 2453SOL    HW1 7570   0.655  -0.003   3.463 -1.0534  0.5200  1.2056
 2453SOL    HW2 7571   0.601   0.077   3.346 -0.3848  0.9229  1.1703
 2454SOL     OW 7572   2.730   0.986   0.484  0.0561 -0.1036 -0.2377
 2454SOL    HW1 7573   2.699   0.910   0.434  0.3069  0.2445 -0.9334
 2454SOL    HW2 7574   2.655   1.046   0.484 -0.6965 -0.9677  1.6474
 2455SOL     OW 7575   3.868   0.533   2.185  0.1802 -0.4941 -0.3961
 2455SOL    HW1 7576   3.821   0.615   2.204 -0.7342 -1.7931  3.9020
 2455SOL    HW2 7577   3.799   0.470   2.167  0.5398 -1.3188  1.0077
 2456SOL     OW 7578   3.502   1.717   2.934 -0.3218  0.5872  0.2319
 2456SOL    HW1 7579   3.518   1.648   2.869  0.3271  0.3500  0.6289
 2456SOL    HW2 7580   3.540   1.796   2.895 -1.0307  0.7130 -0.2066
 2457SOL     OW 7581   3.719   4.275   4.029 -0.0556  0.1572  0.1212
 2457SOL    HW1 7582   3.646   4.271   3.967 -0.6834  1.0538  0.7649
 2457SOL    HW2 7583   3.733   4.185   4.057 -2.6842  0.2032  1.9561
 2458SOL     OW 7584   3.625   1.639   2.175  0.4709 -0.0150 -0.4222
 2458SOL    HW1 7585   3.684   1.690   2.231  1.3650 -1.2236 -0.2136
 2458SOL    HW2 7586   3.587   1.703   2.115 -0.0297  1.2158  1.1321
 2459SOL     OW 7587   4.264   0.422   3.885  0.0157 -0.2123 -0.1019
 2459SOL    HW1 7588   4.360   0.421   3.878  0.1114 -0.2488  1.0762
 2459SOL    HW2 7589   4.240   0.513   3.868  0.4434  0.2463  1.5808
 2460SOL     OW 7590   0.575   2.317   2.854  0.2116  0.1474  0.6878
 2460SOL    HW1 7591   0.587   2.340   2.762  1.4306 -0.0521  0.7774
 2460SOL    HW2 7592   0.550   2.400   2.896 -0.1317  0.2851  0.2120
 2461SOL     OW 7593   3.793   0.795   2.270 -0.1013  0.0355 -0.1315
 2461SOL    HW1 7594   3.847   0.874   2.265 -0.1446 -0.0151 -1.9062
 2461SOL    HW2 7595   3.762   0.781   2.181 -2.0430 -0.6564  0.6001
 2462SOL     OW 7596   2.101   4.177   2.565 -0.2861 -0.0801  0.1605
 2462SOL    HW1 7597   2.102   4.159   2.659  0.9455  1.4529  0.4870
 2462SOL    HW2 7598   2.066   4.266   2.558  1.1901  0.4817 -0.6372
 2463SOL     OW 7599   2.648   1.996   0.707 -0.5664 -0.0627 -0.2435
 2463SOL    HW1 7600   2.648   2.055   0.631  1.0794 -2.7287 -2.4958
 2463SOL    HW2 7601   2.586   1.927   0.683 -0.4694 -0.6508  1.1359
 2464SOL     OW 7602   1.988   0.528   0.912 -0.6865  0.0446 -0.1706
 2464SOL    HW1 7603   2.073   0.505   0.875 -0.4430  1.8126 -0.7866
 2464SOL    HW2 7604   2.008   0.586   0.985 -1.3444 -0.1159  0.1438
 2465SOL     OW 7605   1.582   2.289   0.566 -0.3688 -0.4150  0.1799
 2465SOL    HW1 7606   1.505   2.291   0.509 -0.2851  3.8855 -0.0894
 2465SOL    HW2 7607   1.546   2.286   0.654 -0.6079 -2.6591  0.0712
 2466SOL     OW 7608   3.409   0.302   0.072 -0.0155  0.5595 -0.1028
 2466SOL    HW1 7609   3.500   0.275   0.063 -0.4863 -1.1220 -0.1901
 2466SOL    HW2 7610   3.412   0.397   0.069  1.5407  0.5141 -2.0376
 2467SOL     OW 7611   2.509   2.250   3.870 -0.1347 -0.6422 -0.2731
 2467SOL    HW1 7612   2.551   2.258   3.955  1.3024  1.4662 -1.1004
 2467SOL    HW2 7613   2.422   2.214   3.889 -0.3619  0.9922  2.2627
 2468SOL     OW 7614   3.620   1.067   3.404  0.0959  0.1806  0.9494
 2468SOL    HW1 7615   3.568   1.004   3.453 -0.4718  0.0962  0.2546
 2468SOL    HW2 7616   3.557   1.135   3.377  0.1738 -0.3084 -0.5389
 2469SOL     OW 7617   0.874   3.245   2.492 -0.4399  0.0373 -0.0741
 2469SOL    HW1 7618   0.946   3.239   2.555  1.5784  0.6179 -2.1901
 2469SOL    HW2 7619   0.883   3.166   2.439 -1.3382  0.1499 -0.4054
 2470SOL     OW 7620   3.886   0.427   0.177 -0.4424  0.0717 -0.1655
 2470SOL    HW1 7621   3.813   0.487   0.195 -0.3378 -0.1029  0.9183
 2470SOL    HW2 7622   3.964   0.480   0.193 -0.3243  0.1638 -1.0086
 2471SOL     OW 7623   0.857   0.860   0.409  0.0863  0.4652  0.0569
 2471SOL    HW1 7624   0.870   0.818   0.493  0.0102 -0.6033 -0.4541
 2471SOL    HW2 7625   0.765   0.845   0.388  0.4672 -0.6400 -0.9251
 2472SOL     OW 7626   1.515   3.145   3.452 -0.3422 -0.0759  0.1295
 2472SOL    HW1 7627   1.585   3.193   3.408  0.1673 -0.5491  0.4225
 2472SOL    HW2 7628   1.559   3.073   3.497 -0.8926  0.2341  1.1987
 2473SOL     OW 7629   3.518   1.587   0.680 -0.1757  0.3842  0.0257
 2473SOL    HW1 7630   3.504   1.661   0.621  2.2818  0.6058 -0.4040
 2473SOL    HW2 7631   3.454   1.522   0.654 -0.2126  1.1107 -1.8286
 2474SOL     OW 7632   4.142   0.219   1.760 -0.2250 -0.1406 -0.4771
 2474SOL    HW1 7633   4.121   0.230   1.667 -2.0251  0.0724 -0.0876
 2474SOL    HW2 7634   4.214   0.157   1.761 -0.3501 -0.3578 -2.0035
 2475SOL     OW 7635   3.555   2.657   0.586  0.6552 -0.5418  0.2697
 2475SOL    HW1 7636   3.626   2.721   0.592 -0.8461  1.1072  3.6905
 2475SOL    HW2 7637   3.598   2.573   0.601  1.9994  0.3710  2.0243
 2476SOL     OW 7638   3.143   4.268   1.255  0.7198  0.1316  0.0489
 2476SOL    HW1 7639   3.187   4.238   1.334 -0.2658 -0.5895  0.3418
 2476SOL    HW2 7640   3.182   4.354   1.237  1.6979 -0.1601  0.7081
 2477SOL     OW 7641   0.211   3.420   3.378  0.5027 -0.6030  0.1451
 2477SOL    HW1 7642   0.172   3.500   3.344  1.7320 -0.7142 -1.6994
 2477SOL    HW2 7643   0.182   3.352   3.317  0.2481 -1.4189  1.1433
 2478SOL     OW 7644   3.576   1.829   3.475 -0.2573  0.0147 -0.3265
 2478SOL    HW1 7645   3.606   1.755   3.422  1.6499  0.0340  0.6232
 2478SOL    HW2 7646   3.615   1.906   3.433  1.2695  0.0284  1.0164
 2479SOL     OW 7647   4.123   2.711   4.114 -0.2184  0.1553 -0.5966
 2479SOL    HW1 7648   4.202   2.677   4.073  0.7049  0.9557  0.4712
 2479SOL    HW2 7649   4.099   2.645   4.180  0.1884  0.4094 -0.1860
 2480SOL     OW 7650   1.028   3.615   0.520  0.0073  0.1964  0.0682
 2480SOL    HW1 7651   0.979   3.663   0.454 -0.6179 -1.1091 -0.4605
 2480SOL    HW2 7652   1.034   3.526   0.485  1.5775 -0.0022  0.7584
 2481SOL     OW 7653   3.231   0.115   2.633  0.1079  0.1221  0.8054
 2481SOL    HW1 7654   3.201   0.205   2.646  2.4182  1.2201 -0.9415
 2481SOL    HW2 7655   3.232   0.102   2.538 -0.6819 -1.9802  1.0119
 2482SOL     OW 7656   2.279   3.174   0.589 -0.4960  0.1502 -0.0731
 2482SOL    HW1 7657   2.349   3.142   0.532  0.5320  2.8213 -0.4857
 2482SOL    HW2 7658   2.200   3.132   0.556  0.2920  0.4518 -2.5876
 2483SOL     OW 7659   3.427   1.250   3.334  0.0116  0.3126 -0.3609
 2483SOL    HW1 7660   3.371   1.175   3.313 -0.2487  1.3086 -3.7536
 2483SOL    HW2 7661   3.374   1.304   3.392 -1.1712 -0.4540 -0.6913
 2484SOL     OW 7662   4.297   0.676   4.127 -0.6217  0.3115  0.5230
 2484SOL    HW1 7663   4.320   0.737   4.197 -1.1527 -0.7346  1.6537
 2484SOL    HW2 7664   4.356   0.602   4.139 -0.1875  0.4515 -0.6432
 2485SOL     OW 7665   1.054   2.557   3.682  0.6658  0.3772 -0.2551
 2485SOL    HW1 7666   1.117   2.587   3.748  2.0788  0.5437 -1.6247
 2485SOL    HW2 7667   1.064   2.462   3.680  0.0157  0.2880  0.3388
 2486SOL     OW 7668   4.116   0.358   2.157 -0.1439  0.1632 -1.0202
 2486SOL    HW1 7669   4.033   0.400   2.178 -0.9560 -0.5714 -2.5232
 2486SOL    HW2 7670   4.114   0.275   2.204  0.3558  0.7062 -0.0101
 2487SOL     OW 7671   3.274   1.157   0.398  0.4264 -0.0167  0.0547
 2487SOL    HW1 7672   3.281   1.146   0.304 -0.9600  0.7330 -0.1517
 2487SOL    HW2 7673   3.195   1.209   0.411  0.0418 -0.9243  1.6770
 2488SOL     OW 7674   1.876   4.197   2.253  0.1519 -0.3383 -0.2800
 2488SOL    HW1 7675   1.933   4.233   2.322  0.8059  0.2109 -1.0926
 2488SOL    HW2 7676   1.827   4.128   2.297 -0.8012  1.2119  1.2185
 2489SOL     OW 7677   2.019   1.326   1.297  0.0442  0.2011  0.0539
 2489SOL    HW1 7678   1.956   1.265   1.334  1.2877 -0.0465  1.8980
 2489SOL    HW2 7679   2.102   1.303   1.339  0.8826  2.0624 -0.4731
 2490SOL     OW 7680   0.712   3.527   0.762  0.5001  0.5277  0.4060
 2490SOL    HW1 7681   0.634   3.488   0.801  0.5096 -0.1444 -0.2268
 2490SOL    HW2 7682   0.784   3.470   0.790  0.7848  1.1591  1.0119
 2491SOL     OW 7683   3.709   3.969   0.653  0.4701  0.3377  0.3401
 2491SOL    HW1 7684   3.701   3.927   0.567  0.8799  1.1402 -0.0944
 2491SOL    HW2 7685   3.678   3.902   0.715 -1.5462  0.3702 -0.5486
 2492SOL     OW 7686   2.310   1.577   4.277  0.3717 -0.0288 -0.5825
 2492SOL    HW1 7687   2.297   1.651   4.336  0.4957 -1.0528  0.7581
 2492SOL    HW2 7688   2.404   1.558   4.283  0.1930 -0.8354 -0.2386
 2493SOL     OW 7689   1.361   2.372   2.181  0.2718 -0.5867  0.4240
 2493SOL    HW1 7690   1.423   2.437   2.213  0.3778 -0.5432  0.1372
 2493SOL    HW2 7691   1.295   2.365   2.250  0.4309 -0.4066  0.5938
 2494SOL     OW 7692   0.282   0.736   2.788  0.3150 -0.8820  0.1669
 2494SOL    HW1 7693   0.224   0.778   2.852 -0.0306  0.1617 -0.7876
 2494SOL    HW2 7694   0.361   0.789   2.789 -0.9928  1.4667 -2.7589
 2495SOL     OW 7695   0.340   1.661   0.572  0.2266  0.8243  0.8387
 2495SOL    HW1 7696   0.368   1.743   0.614 -1.8896  1.6134  0.8521
 2495SOL    HW2 7697   0.317   1.603   0.645 -0.3259  1.0161  0.8239
 2496SOL     OW 7698   4.198   3.311   3.024 -0.4222  0.0499 -0.2182
 2496SOL    HW1 7699   4.232   3.364   2.952 -0.4157  0.6941  0.2526
 2496SOL    HW2 7700   4.124   3.264   2.986  0.8114 -1.2177 -1.2080
 2497SOL     OW 7701   0.442   1.934   2.533  0.4066  0.4947 -0.5516
 2497SOL    HW1 7702   0.358   1.962   2.496 -0.1500 -0.2548  0.1060
 2497SOL    HW2 7703   0.450   1.983   2.615 -0.4279 -0.9499  0.4510
 2498SOL     OW 7704   3.917   4.279   1.579  0.1094 -0.0107 -0.1760
 2498SOL    HW1 7705   4.009   4.262   1.601 -0.2604 -0.7494  0.9327
 2498SOL    HW2 7706   3.905   4.240   1.493  0.8445  0.0946 -0.3284
 2499SOL     OW 7707   0.290   1.159   3.701 -0.2373 -0.3146 -0.1835
 2499SOL    HW1 7708   0.346   1.176   3.776  2.5570 -0.2685 -2.1209
 2499SOL    HW2 7709   0.249   1.075   3.720 -0.9512  0.4764  2.0706
 2500SOL     OW 7710   2.028   4.254   0.557  0.5523 -0.0246 -0.1580
 2500SOL    HW1 7711   2.096   4.255   0.490  0.0198  0.3014 -0.7029
 2500SOL    HW2 7712   1.996   4.164   0.559  0.0399  0.1329 -0.8939
 2501SOL     OW 7713   3.347   2.423   3.741  0.9149 -0.8417  0.3448
 2501SOL    HW1 7714   3.325   2.440   3.649 -0.6685  0.0626  0.8501
 2501SOL    HW2 7715   3.280   2.360   3.769 -0.7214  1.4092  1.7440
 2502SOL     OW 7716   2.121   3.012   3.546 -0.2225  0.1232  0.1033
 2502SOL    HW1 7717   2.151   3.052   3.465 -1.1680  1.4169  0.3534
 2502SOL    HW2 7718   2.199   2.969   3.582  0.9715  2.0927  0.0133
 2503SOL     OW 7719   1.198   2.762   3.869 -0.4383  0.1971  0.6662
 2503SOL    HW1 7720   1.274   2.819   3.852 -1.4179  1.1199 -0.8699
 2503SOL    HW2 7721   1.226   2.707   3.942  3.1893 -2.1326 -2.0981
 2504SOL     OW 7722   1.529   0.473   4.145 -0.3464  0.4157  0.0363
 2504SOL    HW1 7723   1.485   0.557   4.137  0.3389  0.7036 -1.0179
 2504SOL    HW2 7724   1.466   0.416   4.189 -0.4963  1.7048  1.5554
 2505SOL     OW 7725   2.808   4.087   2.570 -0.2198  0.2828 -0.2872
 2505SOL    HW1 7726   2.732   4.113   2.517 -1.1139 -0.1862  0.7199
 2505SOL    HW2 7727   2.777   4.012   2.620  1.0100 -0.0807 -0.0466
 2506SOL     OW 7728   1.542   0.204   3.822  0.1043 -0.2140  0.3724
 2506SOL    HW1 7729   1.500   0.192   3.737  0.7189  0.5963 -0.0538
 2506SOL    HW2 7730   1.532   0.119   3.865  1.3259 -1.2171 -1.2060
 2507SOL     OW 7731   0.564   2.043   0.863  0.0970 -0.2786  0.1912
 2507SOL    HW1 7732   0.646   1.997   0.844  0.2449  0.1835 -0.3440
 2507SOL    HW2 7733   0.496   1.980   0.843  0.3065 -0.4097 -0.1182
 2508SOL     OW 7734   0.991   2.716   0.807 -0.2530 -0.4667  0.2432
 2508SOL    HW1 7735   0.963   2.636   0.852  1.4448 -1.0945  0.2477
 2508SOL    HW2 7736   1.085   2.720   0.822 -0.0065  0.5380 -1.3357
 2509SOL     OW 7737   1.706   3.760   3.854  0.2153  0.0853 -0.2409
 2509SOL    HW1 7738   1.697   3.849   3.820  1.4148  0.1551 -0.3954
 2509SOL    HW2 7739   1.800   3.745   3.860  0.0387 -0.6617  1.1320
 2510SOL     OW 7740   3.287   3.562   3.985  0.5084  0.0956  0.6380
 2510SOL    HW1 7741   3.327   3.646   4.006 -0.4206  0.8447 -0.4213
 2510SOL    HW2 7742   3.314   3.504   4.055  0.6342  1.4543  1.7688
 2511SOL     OW 7743   4.163   4.111   1.703 -0.0841 -0.1046  0.3879
 2511SOL    HW1 7744   4.175   4.052   1.777  3.7094 -2.7068 -1.9636
 2511SOL    HW2 7745   4.238   4.171   1.708 -0.7711  0.8518 -0.3960
 2512SOL     OW 7746   3.987   1.999   1.197 -0.3088  0.3690 -0.1257
 2512SOL    HW1 7747   3.946   1.981   1.113  0.2416  1.2424 -0.5943
 2512SOL    HW2 7748   4.021   1.914   1.225 -1.9754 -0.2764  0.0542
 2513SOL     OW 7749   3.158   3.481   0.233  0.6070 -0.3626 -0.3655
 2513SOL    HW1 7750   3.079   3.464   0.182 -0.1647  0.7195  0.4168
 2513SOL    HW2 7751   3.142   3.566   0.274  2.4102  0.1351 -0.6185
 2514SOL     OW 7752   0.298   3.388   0.704 -0.1829 -0.1591  0.5022
 2514SOL    HW1 7753   0.210   3.397   0.740 -0.4309 -0.1531 -0.1051
 2514SOL    HW2 7754   0.290   3.321   0.637 -0.0064  0.7708 -0.4706
 2515SOL     OW 7755   0.117   2.618   1.308 -0.6122 -0.2200  0.1445
 2515SOL    HW1 7756   0.069   2.668   1.242 -1.4492  0.5986  1.3332
 2515SOL    HW2 7757   0.149   2.541   1.261 -0.5977  0.6634 -1.3704
 2516SOL     OW 7758   0.425   2.073   4.072  0.3319  0.5272  0.3279
 2516SOL    HW1 7759   0.343   2.061   4.119 -1.2945  0.5136 -2.3046
 2516SOL    HW2 7760   0.444   2.167   4.081 -1.5580  1.1498 -1.2771
 2517SOL     OW 7761   0.959   3.154   2.189  0.0540 -0.2058 -0.7183
 2517SOL    HW1 7762   0.970   3.122   2.100 -0.0903 -1.8361 -0.1844
 2517SOL    HW2 7763   0.891   3.098   2.227 -0.3987  0.9203  0.2068
 2518SOL     OW 7764   0.506   2.026   3.344  0.0827 -0.0651 -0.2374
 2518SOL    HW1 7765   0.468   2.044   3.430 -0.8523 -0.1084 -0.6279
 2518SOL    HW2 7766   0.457   2.082   3.284  1.2750  0.5686 -0.6445
 2519SOL     OW 7767   0.502   3.205   1.432  0.2818 -0.0795  0.2725
 2519SOL    HW1 7768   0.484   3.116   1.402  0.7635 -0.2132  0.3652
 2519SOL    HW2 7769   0.431   3.224   1.494  0.7803 -0.8245  1.0984
 2520SOL     OW 7770   0.506   3.533   2.270 -0.1441 -0.0677  0.1369
 2520SOL    HW1 7771   0.495   3.457   2.327 -0.1249  0.2119  0.5170
 2520SOL    HW2 7772   0.592   3.520   2.229  1.5508  1.4952  2.8983
 2521SOL     OW 7773   1.649   3.180   1.184  0.2592 -0.2537  0.5308
 2521SOL    HW1 7774   1.713   3.114   1.156 -1.1124 -1.2451 -0.3847
 2521SOL    HW2 7775   1.595   3.195   1.106 -1.1139 -0.0149  1.4926
 2522SOL     OW 7776   2.898   3.209   2.459  0.2885  0.1413 -0.2452
 2522SOL    HW1 7777   2.858   3.142   2.515  2.7641 -0.3069  1.1398
 2522SOL    HW2 7778   2.944   3.160   2.391 -0.7975  0.6170 -1.3620
 2523SOL     OW 7779   4.120   3.592   1.584  0.8709  0.0845  0.5611
 2523SOL    HW1 7780   4.029   3.619   1.593  0.9069  0.0562  1.0213
 2523SOL    HW2 7781   4.161   3.618   1.666  1.4866  0.9061  0.0091
 2524SOL     OW 7782   3.602   1.560   2.740 -0.1349  0.1677  0.0053
 2524SOL    HW1 7783   3.664   1.493   2.767 -0.3059 -0.3027 -0.7260
 2524SOL    HW2 7784   3.539   1.514   2.684 -0.4935  0.8529 -0.1790
 2525SOL     OW 7785   3.123   2.922   0.869  0.4311  1.0990  0.3448
 2525SOL    HW1 7786   3.148   2.968   0.789  0.0325 -0.9559 -1.0462
 2525SOL    HW2 7787   3.186   2.950   0.935  2.3177  1.0041 -1.3429
 2526SOL     OW 7788   0.090   0.856   3.253  0.6452  0.1336  0.2044
 2526SOL    HW1 7789   0.160   0.877   3.316  1.4772 -0.1249 -0.6062
 2526SOL    HW2 7790   0.014   0.903   3.285  1.1006  0.1421  1.3152
 2527SOL     OW 7791   1.507   3.935   0.005 -0.0265  0.0665 -0.2854
 2527SOL    HW1 7792   1.529   3.905  -0.083  1.0637 -1.5939  0.5003
 2527SOL    HW2 7793   1.590   3.932   0.053 -0.6254  0.7986  0.8422
 2528SOL     OW 7794   1.339   1.599   2.341  0.3329  0.1873  0.5663
 2528SOL    HW1 7795   1.304   1.547   2.413  1.3390  0.4055  1.2279
 2528SOL    HW2 7796   1.420   1.636   2.375  0.8343  0.2880 -0.6832
 2529SOL     OW 7797   0.565   4.148   3.163 -0.7314 -0.6276  0.3002
 2529SOL    HW1 7798   0.594   4.225   3.212  0.4597 -0.1935 -1.0277
 2529SOL    HW2 7799   0.620   4.077   3.194  0.6816 -0.1583 -1.0045
 2530SOL     OW 7800   2.671   3.749   3.660  0.3221 -0.5320  0.0115
 2530SOL    HW1 7801   2.661   3.830   3.710  0.4084 -0.1350 -0.5937
 2530SOL    HW2 7802   2.747   3.766   3.603 -0.2353 -0.6720 -0.7924
 2531SOL     OW 7803   0.055   0.530   3.166  0.6005  0.1684 -0.2131
 2531SOL    HW1 7804   0.083   0.522   3.257  0.9789  0.3061 -0.3145
 2531SOL    HW2 7805   0.080   0.619   3.141  0.5384  0.1167 -0.4645
 2532SOL     OW 7806   0.613   1.611   2.975 -0.0111 -0.6435 -0.4577
 2532SOL    HW1 7807   0.628   1.663   2.895  0.4694  1.0385  0.6780
 2532SOL    HW2 7808   0.657   1.528   2.957  3.2801  0.9551 -0.6793
 2533SOL     OW 7809   0.375   0.617   0.345 -0.1132 -0.0410  0.2342
 2533SOL    HW1 7810   0.378   0.713   0.338 -0.2761 -0.0291  0.3279
 2533SOL    HW2 7811   0.293   0.599   0.391 -0.2022 -0.2381 -0.0003
 2534SOL     OW 7812   3.386   0.074   0.519  0.0342 -0.1991  0.3389
 2534SOL    HW1 7813   3.426   0.151   0.559  0.1116 -0.9249  1.7393
 2534SOL    HW2 7814   3.355   0.104   0.434  2.0191  0.8430 -0.0985
 2535SOL     OW 7815   2.490   3.777   2.050 -0.5297  0.4323  0.4997
 2535SOL    HW1 7816   2.460   3.697   2.092 -0.1061  0.7832  1.5037
 2535SOL    HW2 7817   2.565   3.751   1.998 -1.8601 -0.2546 -1.1559
 2536SOL     OW 7818   1.430   0.807   0.639 -0.2710  0.1027  0.3951
 2536SOL    HW1 7819   1.342   0.778   0.663 -0.0128 -1.9849 -0.9033
 2536SOL    HW2 7820   1.458   0.746   0.571  3.1203 -0.9015  2.4088
 2537SOL     OW 7821   3.631   3.740   2.362 -0.0616 -0.0481  0.6763
 2537SOL    HW1 7822   3.585   3.660   2.387  1.1706 -0.4758  1.7060
 2537SOL    HW2 7823   3.566   3.793   2.317 -1.4402 -0.7912  1.7364
 2538SOL     OW 7824   3.489   1.606   3.732  0.1863  0.4872  0.3502
 2538SOL    HW1 7825   3.503   1.521   3.690  2.2831  0.3846  1.1512
 2538SOL    HW2 7826   3.575   1.631   3.765 -0.4500  2.7747  0.4541
 2539SOL     OW 7827   1.554   2.953   2.606 -0.2561 -0.1736 -0.2953
 2539SOL    HW1 7828   1.481   3.012   2.589 -1.1407 -1.2440 -0.3199
 2539SOL    HW2 7829   1.615   3.005   2.658 -1.0316  0.7407 -0.2683
 2540SOL     OW 7830   3.732   0.354   3.251  0.1495  0.0756 -0.4363
 2540SOL    HW1 7831   3.684   0.435   3.263  0.1007  0.1519 -1.0855
 2540SOL    HW2 7832   3.824   0.378   3.262  0.0130 -0.2537  1.7661
 2541SOL     OW 7833   0.587   2.975   1.944 -0.1570  0.0815  0.4088
 2541SOL    HW1 7834   0.572   3.005   1.855  0.0287 -0.2200  0.2754
 2541SOL    HW2 7835   0.548   2.888   1.947  1.2768 -0.5894  0.1447
 2542SOL     OW 7836   2.247   4.160   2.327  0.6859  0.3254  0.4985
 2542SOL    HW1 7837   2.268   4.074   2.290  0.5546  0.8100 -0.7561
 2542SOL    HW2 7838   2.223   4.141   2.418  0.2726 -1.0287  0.1456
 2543SOL     OW 7839   2.309   0.872   1.708 -0.1834  0.1091 -0.7573
 2543SOL    HW1 7840   2.351   0.871   1.622 -1.4120 -0.4725 -1.3780
 2543SOL    HW2 7841   2.291   0.964   1.724  0.6709  0.2938 -0.8009
 2544SOL     OW 7842   3.278   0.264   3.291 -0.3347 -0.0940  0.1531
 2544SOL    HW1 7843   3.313   0.220   3.369 -0.3951  0.7478  0.6651
 2544SOL    HW2 7844   3.314   0.353   3.296  0.9231 -0.4583 -1.6087
 2545SOL     OW 7845   1.669   2.059   3.440  0.4017 -0.6473  0.5563
 2545SOL    HW1 7846   1.580   2.079   3.467  0.8971  0.2717  1.5742
 2545SOL    HW2 7847   1.659   1.999   3.366 -1.1535  2.0832 -1.6356
 2546SOL     OW 7848   3.485   2.290   3.109  0.0104  0.2019 -0.0028
 2546SOL    HW1 7849   3.566   2.341   3.104 -0.3408  0.7635 -0.1460
 2546SOL    HW2 7850   3.431   2.338   3.171 -0.1685 -0.2413  0.1860
 2547SOL     OW 7851   1.851   3.593   0.019  0.0902 -0.1769  0.0269
 2547SOL    HW1 7852   1.792   3.560   0.087  0.8813  2.5310  2.2397
 2547SOL    HW2 7853   1.938   3.584   0.058  0.4430  3.0379  0.2577
 2548SOL     OW 7854   2.008   0.130   3.341  0.1102  0.2388 -0.5317
 2548SOL    HW1 7855   2.002   0.104   3.433 -0.2332 -0.4912 -0.7511
 2548SOL    HW2 7856   1.989   0.223   3.341 -1.6696 -0.0875 -0.0501
 2549SOL     OW 7857   0.935   1.220   4.215  0.5038 -0.3278  0.0558
 2549SOL    HW1 7858   0.885   1.166   4.275 -0.7769 -0.7149 -1.3044
 2549SOL    HW2 7859   1.026   1.193   4.228 -0.0418 -2.4168 -0.1936
 2550SOL     OW 7860   2.287   2.607   3.355 -0.4217  0.8657  0.2175
 2550SOL    HW1 7861   2.195   2.631   3.339 -0.7696 -0.3397  0.2676
 2550SOL    HW2 7862   2.313   2.562   3.274  0.3917  1.9064 -0.1173
 2551SOL     OW 7863   1.442   3.467   0.406 -0.4428 -0.1096 -0.2478
 2551SOL    HW1 7864   1.380   3.393   0.409  0.4258 -0.8250  1.3048
 2551SOL    HW2 7865   1.513   3.440   0.464  0.0233  1.8535  0.1383
 2552SOL     OW 7866   2.816   0.798   1.874  0.1992 -0.1801 -0.2915
 2552SOL    HW1 7867   2.824   0.702   1.875 -0.9989 -0.3157 -1.3910
 2552SOL    HW2 7868   2.728   0.814   1.842  1.0733  1.3198 -2.1168
 2553SOL     OW 7869   0.082   1.018   0.682 -0.4744 -0.2404 -0.0336
 2553SOL    HW1 7870   0.117   1.106   0.676 -0.8023 -0.1085 -0.0295
 2553SOL    HW2 7871   0.071   1.002   0.776  0.9221 -0.8237  0.0612
 2554SOL     OW 7872   2.031   3.846   2.987  0.3087 -0.6851  0.3680
 2554SOL    HW1 7873   1.975   3.769   2.997 -0.0145 -0.2870  1.9248
 2554SOL    HW2 7874   2.084   3.847   3.067  0.4295  0.6180  0.2901
 2555SOL     OW 7875   4.128   3.769   4.119 -0.1736  0.6828  0.2120
 2555SOL    HW1 7876   4.180   3.803   4.193  1.8573  2.1008 -1.7243
 2555SOL    HW2 7877   4.105   3.847   4.069 -1.8365 -0.2162 -0.4870
 2556SOL     OW 7878   4.242   0.033   4.209  0.1813  0.3437 -0.9139
 2556SOL    HW1 7879   4.206  -0.048   4.244  2.1522  0.0521  0.6255
 2556SOL    HW2 7880   4.189   0.103   4.248  1.3858 -0.0456  1.6061
 2557SOL     OW 7881   0.561   3.121   2.624  0.0357 -0.0468 -0.0514
 2557SOL    HW1 7882   0.563   3.037   2.577  0.1327  0.2332 -0.5559
 2557SOL    HW2 7883   0.548   3.097   2.715  0.7908 -0.6533 -0.0925
 2558SOL     OW 7884   2.752   0.832   0.174 -0.1178 -0.2079 -0.2503
 2558SOL    HW1 7885   2.735   0.783   0.254 -0.9483 -0.7938 -0.7702
 2558SOL    HW2 7886   2.672   0.880   0.156 -0.8867 -1.9885 -2.0197
 2559SOL     OW 7887   1.444   3.033   3.109  0.5345 -0.0783 -0.0790
 2559SOL    HW1 7888   1.481   2.993   3.031  0.1748  0.4111 -0.5060
 2559SOL    HW2 7889   1.472   3.125   3.105  0.6703 -0.0910  0.4630
 2560NA      NA 7890   3.843   0.757   2.535  0.0792 -0.0120 -0.1137
   4.29815   4.29815   4.29815
